# vtk DataFile Version 3.0
PDE solution
ASCII
DATASET UNSTRUCTURED_GRID
POINTS 65 double
-1.0 -1.0 0.0
-1.0 0.0 0.0
-1.0 1.0 0.0
0.0 -1.0 0.0
0.0 0.0 0.0
0.0 1.0 0.0
1.0 -1.0 0.0
1.0 0.0 0.0
-1.0 -0.5 0.0
-1.0 0.5 0.0
-0.5 -1.0 0.0
-0.5 0.0 0.0
0.0 -0.5 0.0
-0.5 1.0 0.0
0.0 0.5 0.0
0.5 -1.0 0.0
0.5 0.0 0.0
1.0 -0.5 0.0
-0.5 -0.5 0.0
0.5 -0.5 0.0
-0.5 0.5 0.0
-1.0 -0.25 0.0
-1.0 -0.75 0.0
-1.0 0.75 0.0
-1.0 0.25 0.0
-0.25 -1.0 0.0
-0.75 -1.0 0.0
-0.25 0.0 0.0
-0.75 0.0 0.0
0.0 -0.25 0.0
0.0 -0.75 0.0
-0.25 1.0 0.0
-0.75 1.0 0.0
0.0 0.75 0.0
0.0 0.25 0.0
0.75 -1.0 0.0
0.25 -1.0 0.0
0.75 0.0 0.0
0.25 0.0 0.0
1.0 -0.25 0.0
1.0 -0.75 0.0
-0.75 -0.75 0.0
-0.25 -0.25 0.0
0.25 -0.75 0.0
0.75 -0.25 0.0
-0.75 0.25 0.0
-0.25 0.75 0.0
-0.75 -0.25 0.0
-0.5 -0.25 0.0
-0.75 -0.5 0.0
-0.25 -0.75 0.0
-0.25 -0.5 0.0
-0.5 -0.75 0.0
0.25 -0.25 0.0
0.5 -0.25 0.0
0.25 -0.5 0.0
0.75 -0.75 0.0
0.75 -0.5 0.0
0.5 -0.75 0.0
-0.75 0.75 0.0
-0.5 0.75 0.0
-0.75 0.5 0.0
-0.25 0.25 0.0
-0.25 0.5 0.0
-0.5 0.25 0.0
CELLS 96 384
3 1 28 21
3 21 8 47
3 28 11 47
3 47 21 28
3 11 48 27
3 27 4 42
3 48 18 42
3 42 48 27
3 8 49 22
3 22 0 41
3 49 18 41
3 41 22 49
3 18 49 48
3 48 11 47
3 49 8 47
3 47 48 49
3 3 30 25
3 25 10 50
3 30 12 50
3 50 30 25
3 12 51 29
3 29 4 42
3 51 18 42
3 42 29 51
3 10 52 26
3 26 0 41
3 52 18 41
3 41 26 52
3 18 52 51
3 51 12 50
3 52 10 50
3 50 51 52
3 4 38 29
3 29 12 53
3 38 16 53
3 53 29 38
3 16 54 37
3 37 7 44
3 54 19 44
3 44 54 37
3 12 55 30
3 30 3 43
3 55 19 43
3 43 55 30
3 19 55 54
3 54 16 53
3 55 12 53
3 53 54 55
3 6 40 35
3 35 15 56
3 40 17 56
3 56 35 40
3 17 57 39
3 39 7 44
3 57 19 44
3 44 39 57
3 15 58 36
3 36 3 43
3 58 19 43
3 43 36 58
3 19 58 57
3 57 17 56
3 58 15 56
3 56 57 58
3 2 32 23
3 23 9 59
3 32 13 59
3 59 32 23
3 13 60 31
3 31 5 46
3 60 20 46
3 46 31 60
3 9 61 24
3 24 1 45
3 61 20 45
3 45 24 61
3 20 61 60
3 60 13 59
3 61 9 59
3 59 60 61
3 4 34 27
3 27 11 62
3 34 14 62
3 62 34 27
3 14 63 33
3 33 5 46
3 63 20 46
3 46 63 33
3 11 64 28
3 28 1 45
3 64 20 45
3 45 64 28
3 20 63 64
3 64 11 62
3 63 14 62
3 62 64 63
CELL_TYPES 96
5
5
5
5
5
5
5
5
5
5
5
5
5
5
5
5
5
5
5
5
5
5
5
5
5
5
5
5
5
5
5
5
5
5
5
5
5
5
5
5
5
5
5
5
5
5
5
5
5
5
5
5
5
5
5
5
5
5
5
5
5
5
5
5
5
5
5
5
5
5
5
5
5
5
5
5
5
5
5
5
5
5
5
5
5
5
5
5
5
5
5
5
5
5
5
5
POINT_DATA 65
SCALARS u(x,y) double 1
LOOKUP_TABLE default
-1.1145100977088401e-09
-0.01603917025628778
-0.028942475860509215
0.016039168313311994
0.0
0.0
0.028942474329862612
0.0
-0.004573369563914177
-0.02633758244052236
0.004573367512594228
-0.011694774187912168
0.01169477271489473
-0.025861198896994144
0.0
0.02633758066903312
0.0
0.02586119783941274
-9.751963357933907e-10
0.0230266503275341
-0.023026651510798694
-0.009652003764215772
-0.0012693872835909444
-0.028626037709762124
-0.022343230690292842
0.009652001946321574
0.001269384943119739
-0.0065191826729097315
-0.014998711334714724
0.006519181809164406
0.01499870957625447
-0.01866640622501089
-0.028855827689062107
0.0
0.0
0.02862603602556958
0.02234322881045944
0.0
0.0
0.01866640564049468
0.028855826227771587
-1.058784592714978e-09
-6.687060588963546e-10
0.021114623720821353
0.01915468694870234
-0.0211146254545257
-0.01915468753321855
-0.008341927597568629
-0.005078680559783378
-0.0033447189717243416
0.008341925668223421
0.0050786789158809836
0.003344716937743413
0.012995857444332739
0.01703975493681835
0.018293518677114977
0.028058554404213766
0.025141582339418093
0.025847755371240476
-0.028058555865504285
-0.025141583473772468
-0.025847756996600666
-0.012995858126669379
-0.01703975557024477
-0.018293519968723727