# vtk DataFile Version 3.0
PDE solution
ASCII
DATASET UNSTRUCTURED_GRID
POINTS 12545 double
-1.0 -1.0 0.0
-1.0 0.0 0.0
-1.0 1.0 0.0
0.0 -1.0 0.0
0.0 0.0 0.0
0.0 1.0 0.0
1.0 -1.0 0.0
1.0 0.0 0.0
-1.0 -0.5 0.0
-1.0 0.5 0.0
-0.5 -1.0 0.0
-0.5 0.0 0.0
0.0 -0.5 0.0
-0.5 1.0 0.0
0.0 0.5 0.0
0.5 -1.0 0.0
0.5 0.0 0.0
1.0 -0.5 0.0
-0.5 -0.5 0.0
0.5 -0.5 0.0
-0.5 0.5 0.0
-1.0 -0.25 0.0
-1.0 -0.75 0.0
-1.0 0.75 0.0
-1.0 0.25 0.0
-0.25 -1.0 0.0
-0.75 -1.0 0.0
-0.25 0.0 0.0
-0.75 0.0 0.0
0.0 -0.25 0.0
0.0 -0.75 0.0
-0.25 1.0 0.0
-0.75 1.0 0.0
0.0 0.75 0.0
0.0 0.25 0.0
0.75 -1.0 0.0
0.25 -1.0 0.0
0.75 0.0 0.0
0.25 0.0 0.0
1.0 -0.25 0.0
1.0 -0.75 0.0
-0.75 -0.75 0.0
-0.25 -0.25 0.0
0.25 -0.75 0.0
0.75 -0.25 0.0
-0.75 0.25 0.0
-0.25 0.75 0.0
-0.75 -0.25 0.0
-0.5 -0.25 0.0
-0.75 -0.5 0.0
-0.25 -0.75 0.0
-0.25 -0.5 0.0
-0.5 -0.75 0.0
0.25 -0.25 0.0
0.25 -0.5 0.0
0.5 -0.25 0.0
0.75 -0.75 0.0
0.75 -0.5 0.0
0.5 -0.75 0.0
-0.75 0.75 0.0
-0.5 0.75 0.0
-0.75 0.5 0.0
-0.25 0.25 0.0
-0.25 0.5 0.0
-0.5 0.25 0.0
-1.0 -0.125 0.0
-1.0 -0.375 0.0
-1.0 -0.625 0.0
-1.0 -0.875 0.0
-1.0 0.875 0.0
-1.0 0.625 0.0
-1.0 0.375 0.0
-1.0 0.125 0.0
-0.125 -1.0 0.0
-0.375 -1.0 0.0
-0.625 -1.0 0.0
-0.875 -1.0 0.0
-0.125 0.0 0.0
-0.375 0.0 0.0
-0.625 0.0 0.0
-0.875 0.0 0.0
0.0 -0.125 0.0
0.0 -0.375 0.0
0.0 -0.625 0.0
0.0 -0.875 0.0
-0.125 1.0 0.0
-0.375 1.0 0.0
-0.625 1.0 0.0
-0.875 1.0 0.0
0.0 0.875 0.0
0.0 0.625 0.0
0.0 0.375 0.0
0.0 0.125 0.0
0.875 -1.0 0.0
0.625 -1.0 0.0
0.375 -1.0 0.0
0.125 -1.0 0.0
0.875 0.0 0.0
0.625 0.0 0.0
0.375 0.0 0.0
0.125 0.0 0.0
1.0 -0.125 0.0
1.0 -0.375 0.0
1.0 -0.625 0.0
1.0 -0.875 0.0
-0.875 -0.875 0.0
-0.625 -0.625 0.0
-0.375 -0.375 0.0
-0.125 -0.125 0.0
0.125 -0.875 0.0
0.375 -0.625 0.0
0.625 -0.375 0.0
0.875 -0.125 0.0
-0.875 0.125 0.0
-0.625 0.375 0.0
-0.375 0.625 0.0
-0.125 0.875 0.0
-0.875 -0.375 0.0
-0.625 -0.125 0.0
-0.5 -0.375 0.0
-0.5 -0.125 0.0
-0.625 -0.5 0.0
-0.875 -0.5 0.0
-0.375 -0.875 0.0
-0.125 -0.625 0.0
-0.375 -0.5 0.0
-0.125 -0.5 0.0
-0.5 -0.625 0.0
-0.5 -0.875 0.0
0.375 -0.125 0.0
0.125 -0.375 0.0
0.375 -0.5 0.0
0.125 -0.5 0.0
0.5 -0.375 0.0
0.5 -0.125 0.0
0.625 -0.875 0.0
0.875 -0.625 0.0
0.625 -0.5 0.0
0.875 -0.5 0.0
0.5 -0.625 0.0
0.5 -0.875 0.0
-0.875 0.625 0.0
-0.625 0.875 0.0
-0.5 0.625 0.0
-0.5 0.875 0.0
-0.625 0.5 0.0
-0.875 0.5 0.0
-0.375 0.125 0.0
-0.125 0.375 0.0
-0.375 0.5 0.0
-0.125 0.5 0.0
-0.5 0.375 0.0
-0.5 0.125 0.0
-0.875 -0.125 0.0
-0.875 -0.25 0.0
-0.75 -0.125 0.0
-0.375 -0.125 0.0
-0.25 -0.125 0.0
-0.375 -0.25 0.0
-0.875 -0.625 0.0
-0.875 -0.75 0.0
-0.75 -0.625 0.0
-0.625 -0.375 0.0
-0.75 -0.375 0.0
-0.625 -0.25 0.0
-0.125 -0.875 0.0
-0.25 -0.875 0.0
-0.125 -0.75 0.0
-0.125 -0.375 0.0
-0.125 -0.25 0.0
-0.25 -0.375 0.0
-0.625 -0.875 0.0
-0.75 -0.875 0.0
-0.625 -0.75 0.0
-0.375 -0.625 0.0
-0.25 -0.625 0.0
-0.375 -0.75 0.0
0.125 -0.125 0.0
0.25 -0.125 0.0
0.125 -0.25 0.0
0.125 -0.625 0.0
0.125 -0.75 0.0
0.25 -0.625 0.0
0.625 -0.125 0.0
0.75 -0.125 0.0
0.625 -0.25 0.0
0.375 -0.375 0.0
0.25 -0.375 0.0
0.375 -0.25 0.0
0.875 -0.875 0.0
0.75 -0.875 0.0
0.875 -0.75 0.0
0.875 -0.375 0.0
0.875 -0.25 0.0
0.75 -0.375 0.0
0.375 -0.875 0.0
0.25 -0.875 0.0
0.375 -0.75 0.0
0.625 -0.625 0.0
0.625 -0.75 0.0
0.75 -0.625 0.0
-0.875 0.875 0.0
-0.875 0.75 0.0
-0.75 0.875 0.0
-0.375 0.875 0.0
-0.25 0.875 0.0
-0.375 0.75 0.0
-0.875 0.375 0.0
-0.875 0.25 0.0
-0.75 0.375 0.0
-0.625 0.625 0.0
-0.75 0.625 0.0
-0.625 0.75 0.0
-0.125 0.125 0.0
-0.25 0.125 0.0
-0.125 0.25 0.0
-0.125 0.625 0.0
-0.125 0.75 0.0
-0.25 0.625 0.0
-0.625 0.125 0.0
-0.75 0.125 0.0
-0.625 0.25 0.0
-0.375 0.375 0.0
-0.375 0.25 0.0
-0.25 0.375 0.0
-1.0 -0.0625 0.0
-1.0 -0.1875 0.0
-1.0 -0.3125 0.0
-1.0 -0.4375 0.0
-1.0 -0.5625 0.0
-1.0 -0.6875 0.0
-1.0 -0.8125 0.0
-1.0 -0.9375 0.0
-1.0 0.9375 0.0
-1.0 0.8125 0.0
-1.0 0.6875 0.0
-1.0 0.5625 0.0
-1.0 0.4375 0.0
-1.0 0.3125 0.0
-1.0 0.1875 0.0
-1.0 0.0625 0.0
-0.0625 -1.0 0.0
-0.1875 -1.0 0.0
-0.3125 -1.0 0.0
-0.4375 -1.0 0.0
-0.5625 -1.0 0.0
-0.6875 -1.0 0.0
-0.8125 -1.0 0.0
-0.9375 -1.0 0.0
-0.0625 0.0 0.0
-0.1875 0.0 0.0
-0.3125 0.0 0.0
-0.4375 0.0 0.0
-0.5625 0.0 0.0
-0.6875 0.0 0.0
-0.8125 0.0 0.0
-0.9375 0.0 0.0
0.0 -0.0625 0.0
0.0 -0.1875 0.0
0.0 -0.3125 0.0
0.0 -0.4375 0.0
0.0 -0.5625 0.0
0.0 -0.6875 0.0
0.0 -0.8125 0.0
0.0 -0.9375 0.0
-0.0625 1.0 0.0
-0.1875 1.0 0.0
-0.3125 1.0 0.0
-0.4375 1.0 0.0
-0.5625 1.0 0.0
-0.6875 1.0 0.0
-0.8125 1.0 0.0
-0.9375 1.0 0.0
0.0 0.9375 0.0
0.0 0.8125 0.0
0.0 0.6875 0.0
0.0 0.5625 0.0
0.0 0.4375 0.0
0.0 0.3125 0.0
0.0 0.1875 0.0
0.0 0.0625 0.0
0.9375 -1.0 0.0
0.8125 -1.0 0.0
0.6875 -1.0 0.0
0.5625 -1.0 0.0
0.4375 -1.0 0.0
0.3125 -1.0 0.0
0.1875 -1.0 0.0
0.0625 -1.0 0.0
0.9375 0.0 0.0
0.8125 0.0 0.0
0.6875 0.0 0.0
0.5625 0.0 0.0
0.4375 0.0 0.0
0.3125 0.0 0.0
0.1875 0.0 0.0
0.0625 0.0 0.0
1.0 -0.0625 0.0
1.0 -0.1875 0.0
1.0 -0.3125 0.0
1.0 -0.4375 0.0
1.0 -0.5625 0.0
1.0 -0.6875 0.0
1.0 -0.8125 0.0
1.0 -0.9375 0.0
-0.9375 -0.9375 0.0
-0.8125 -0.8125 0.0
-0.6875 -0.6875 0.0
-0.5625 -0.5625 0.0
-0.4375 -0.4375 0.0
-0.3125 -0.3125 0.0
-0.1875 -0.1875 0.0
-0.0625 -0.0625 0.0
0.0625 -0.9375 0.0
0.1875 -0.8125 0.0
0.3125 -0.6875 0.0
0.4375 -0.5625 0.0
0.5625 -0.4375 0.0
0.6875 -0.3125 0.0
0.8125 -0.1875 0.0
0.9375 -0.0625 0.0
-0.9375 0.0625 0.0
-0.8125 0.1875 0.0
-0.6875 0.3125 0.0
-0.5625 0.4375 0.0
-0.4375 0.5625 0.0
-0.3125 0.6875 0.0
-0.1875 0.8125 0.0
-0.0625 0.9375 0.0
-0.9375 -0.4375 0.0
-0.8125 -0.3125 0.0
-0.6875 -0.1875 0.0
-0.5625 -0.0625 0.0
-0.5 -0.4375 0.0
-0.5 -0.3125 0.0
-0.5 -0.1875 0.0
-0.5 -0.0625 0.0
-0.5625 -0.5 0.0
-0.6875 -0.5 0.0
-0.8125 -0.5 0.0
-0.9375 -0.5 0.0
-0.4375 -0.9375 0.0
-0.3125 -0.8125 0.0
-0.1875 -0.6875 0.0
-0.0625 -0.5625 0.0
-0.4375 -0.5 0.0
-0.3125 -0.5 0.0
-0.1875 -0.5 0.0
-0.0625 -0.5 0.0
-0.5 -0.5625 0.0
-0.5 -0.6875 0.0
-0.5 -0.8125 0.0
-0.5 -0.9375 0.0
0.4375 -0.0625 0.0
0.3125 -0.1875 0.0
0.1875 -0.3125 0.0
0.0625 -0.4375 0.0
0.4375 -0.5 0.0
0.3125 -0.5 0.0
0.1875 -0.5 0.0
0.0625 -0.5 0.0
0.5 -0.4375 0.0
0.5 -0.3125 0.0
0.5 -0.1875 0.0
0.5 -0.0625 0.0
0.5625 -0.9375 0.0
0.6875 -0.8125 0.0
0.8125 -0.6875 0.0
0.9375 -0.5625 0.0
0.5625 -0.5 0.0
0.6875 -0.5 0.0
0.8125 -0.5 0.0
0.9375 -0.5 0.0
0.5 -0.5625 0.0
0.5 -0.6875 0.0
0.5 -0.8125 0.0
0.5 -0.9375 0.0
-0.9375 0.5625 0.0
-0.8125 0.6875 0.0
-0.6875 0.8125 0.0
-0.5625 0.9375 0.0
-0.5 0.5625 0.0
-0.5 0.6875 0.0
-0.5 0.8125 0.0
-0.5 0.9375 0.0
-0.5625 0.5 0.0
-0.6875 0.5 0.0
-0.8125 0.5 0.0
-0.9375 0.5 0.0
-0.4375 0.0625 0.0
-0.3125 0.1875 0.0
-0.1875 0.3125 0.0
-0.0625 0.4375 0.0
-0.4375 0.5 0.0
-0.3125 0.5 0.0
-0.1875 0.5 0.0
-0.0625 0.5 0.0
-0.5 0.4375 0.0
-0.5 0.3125 0.0
-0.5 0.1875 0.0
-0.5 0.0625 0.0
-0.8125 -0.0625 0.0
-0.9375 -0.1875 0.0
-0.8125 -0.25 0.0
-0.9375 -0.25 0.0
-0.75 -0.1875 0.0
-0.75 -0.0625 0.0
-0.4375 -0.1875 0.0
-0.3125 -0.0625 0.0
-0.25 -0.1875 0.0
-0.25 -0.0625 0.0
-0.3125 -0.25 0.0
-0.4375 -0.25 0.0
-0.8125 -0.5625 0.0
-0.9375 -0.6875 0.0
-0.8125 -0.75 0.0
-0.9375 -0.75 0.0
-0.75 -0.6875 0.0
-0.75 -0.5625 0.0
-0.5625 -0.3125 0.0
-0.6875 -0.4375 0.0
-0.75 -0.3125 0.0
-0.75 -0.4375 0.0
-0.6875 -0.25 0.0
-0.5625 -0.25 0.0
-0.0625 -0.8125 0.0
-0.1875 -0.9375 0.0
-0.25 -0.8125 0.0
-0.25 -0.9375 0.0
-0.1875 -0.75 0.0
-0.0625 -0.75 0.0
-0.1875 -0.4375 0.0
-0.0625 -0.3125 0.0
-0.1875 -0.25 0.0
-0.0625 -0.25 0.0
-0.25 -0.3125 0.0
-0.25 -0.4375 0.0
-0.5625 -0.8125 0.0
-0.6875 -0.9375 0.0
-0.75 -0.8125 0.0
-0.75 -0.9375 0.0
-0.6875 -0.75 0.0
-0.5625 -0.75 0.0
-0.4375 -0.6875 0.0
-0.3125 -0.5625 0.0
-0.25 -0.6875 0.0
-0.25 -0.5625 0.0
-0.3125 -0.75 0.0
-0.4375 -0.75 0.0
0.0625 -0.1875 0.0
0.1875 -0.0625 0.0
0.25 -0.1875 0.0
0.25 -0.0625 0.0
0.1875 -0.25 0.0
0.0625 -0.25 0.0
0.1875 -0.5625 0.0
0.0625 -0.6875 0.0
0.1875 -0.75 0.0
0.0625 -0.75 0.0
0.25 -0.6875 0.0
0.25 -0.5625 0.0
0.5625 -0.1875 0.0
0.6875 -0.0625 0.0
0.75 -0.1875 0.0
0.75 -0.0625 0.0
0.6875 -0.25 0.0
0.5625 -0.25 0.0
0.4375 -0.3125 0.0
0.3125 -0.4375 0.0
0.25 -0.3125 0.0
0.25 -0.4375 0.0
0.3125 -0.25 0.0
0.4375 -0.25 0.0
0.9375 -0.8125 0.0
0.8125 -0.9375 0.0
0.75 -0.8125 0.0
0.75 -0.9375 0.0
0.8125 -0.75 0.0
0.9375 -0.75 0.0
0.8125 -0.4375 0.0
0.9375 -0.3125 0.0
0.8125 -0.25 0.0
0.9375 -0.25 0.0
0.75 -0.3125 0.0
0.75 -0.4375 0.0
0.4375 -0.8125 0.0
0.3125 -0.9375 0.0
0.25 -0.8125 0.0
0.25 -0.9375 0.0
0.3125 -0.75 0.0
0.4375 -0.75 0.0
0.6875 -0.5625 0.0
0.5625 -0.6875 0.0
0.6875 -0.75 0.0
0.5625 -0.75 0.0
0.75 -0.6875 0.0
0.75 -0.5625 0.0
-0.8125 0.9375 0.0
-0.9375 0.8125 0.0
-0.8125 0.75 0.0
-0.9375 0.75 0.0
-0.75 0.8125 0.0
-0.75 0.9375 0.0
-0.4375 0.8125 0.0
-0.3125 0.9375 0.0
-0.25 0.8125 0.0
-0.25 0.9375 0.0
-0.3125 0.75 0.0
-0.4375 0.75 0.0
-0.8125 0.4375 0.0
-0.9375 0.3125 0.0
-0.8125 0.25 0.0
-0.9375 0.25 0.0
-0.75 0.3125 0.0
-0.75 0.4375 0.0
-0.5625 0.6875 0.0
-0.6875 0.5625 0.0
-0.75 0.6875 0.0
-0.75 0.5625 0.0
-0.6875 0.75 0.0
-0.5625 0.75 0.0
-0.0625 0.1875 0.0
-0.1875 0.0625 0.0
-0.25 0.1875 0.0
-0.25 0.0625 0.0
-0.1875 0.25 0.0
-0.0625 0.25 0.0
-0.1875 0.5625 0.0
-0.0625 0.6875 0.0
-0.1875 0.75 0.0
-0.0625 0.75 0.0
-0.25 0.6875 0.0
-0.25 0.5625 0.0
-0.5625 0.1875 0.0
-0.6875 0.0625 0.0
-0.75 0.1875 0.0
-0.75 0.0625 0.0
-0.6875 0.25 0.0
-0.5625 0.25 0.0
-0.3125 0.4375 0.0
-0.4375 0.3125 0.0
-0.3125 0.25 0.0
-0.4375 0.25 0.0
-0.25 0.3125 0.0
-0.25 0.4375 0.0
-0.9375 -0.0625 0.0
-0.875 -0.0625 0.0
-0.9375 -0.125 0.0
-0.9375 -0.3125 0.0
-0.9375 -0.375 0.0
-0.875 -0.3125 0.0
-0.6875 -0.0625 0.0
-0.625 -0.0625 0.0
-0.6875 -0.125 0.0
-0.8125 -0.1875 0.0
-0.8125 -0.125 0.0
-0.875 -0.1875 0.0
-0.4375 -0.0625 0.0
-0.4375 -0.125 0.0
-0.375 -0.0625 0.0
-0.1875 -0.0625 0.0
-0.125 -0.0625 0.0
-0.1875 -0.125 0.0
-0.4375 -0.3125 0.0
-0.4375 -0.375 0.0
-0.375 -0.3125 0.0
-0.3125 -0.1875 0.0
-0.3125 -0.125 0.0
-0.375 -0.1875 0.0
-0.9375 -0.5625 0.0
-0.875 -0.5625 0.0
-0.9375 -0.625 0.0
-0.9375 -0.8125 0.0
-0.9375 -0.875 0.0
-0.875 -0.8125 0.0
-0.6875 -0.5625 0.0
-0.625 -0.5625 0.0
-0.6875 -0.625 0.0
-0.8125 -0.6875 0.0
-0.875 -0.6875 0.0
-0.8125 -0.625 0.0
-0.5625 -0.4375 0.0
-0.5625 -0.375 0.0
-0.625 -0.4375 0.0
-0.8125 -0.4375 0.0
-0.875 -0.4375 0.0
-0.8125 -0.375 0.0
-0.5625 -0.1875 0.0
[...]
POINT_DATA 12545
SCALARS u(x,y) double 1
LOOKUP_TABLE default
-7.300551057939124e-20
-4.711829664545563e-05
-9.064383991054502e-05
4.711829664545585e-05
0.0
0.0
9.064383991054544e-05
0.0
-1.1598075521430677e-05
-8.081003706509053e-05
1.1598075521430513e-05
-3.328691345438104e-05
3.328691345438107e-05
-6.921196154366015e-05
0.0
8.081003706509082e-05
0.0
6.921196154366028e-05
-3.131313280587368e-20
6.172258349230627e-05
-6.17225834923059e-05
-2.621072216554206e-05
-2.8965098859644816e-06
-8.8266919095398e-05
-6.747415300118652e-05
2.6210722165541968e-05
2.8965098859643325e-06
-1.7164543145860838e-05
-4.359811616346911e-05
1.7164543145860892e-05
4.3598116163469196e-05
-4.12634308356445e-05
-8.537040920943366e-05
0.0
0.0
8.826691909539828e-05
6.747415300118679e-05
0.0
0.0
4.126343083564451e-05
8.537040920943383e-05
-6.799491585688997e-20
2.5897495130901336e-21
6.335721728436992e-05
4.025253916136441e-05
-6.335721728436961e-05
-4.02525391613643e-05
-2.3104678123005487e-05
-1.4048875170070245e-05
-8.665212943764373e-06
2.3104678123005385e-05
1.4048875170070225e-05
8.665212943764255e-06
3.0296754079796628e-05
5.1002029157653096e-05
3.695315398758286e-05
8.312748670031183e-05
6.742417775761156e-05
7.608939070137588e-05
-8.312748670031168e-05
-6.742417775761136e-05
-7.608939070137553e-05
-3.0296754079796516e-05
-3.6953153987582685e-05
-5.100202915765286e-05
-3.583635382987412e-05
-1.8150657926213856e-05
-6.518982620719146e-06
-7.240808009142093e-07
-9.006238542920891e-05
-8.521190941019085e-05
-7.494406575854782e-05
-5.824819755962502e-05
3.583635382987417e-05
1.8150657926213697e-05
6.518982620718991e-06
7.240808009140631e-07
-7.850825715025254e-06
-2.5833471456198454e-05
-3.925667492566528e-05
-4.6230967067541094e-05
7.850825715025284e-06
2.5833471456198515e-05
3.925667492566532e-05
4.623096706754127e-05
-2.2411843729751466e-05
-5.679340783233425e-05
-7.869292678947195e-05
-8.933830462829476e-05
0.0
0.0
0.0
0.0
9.006238542920936e-05
8.521190941019112e-05
7.494406575854819e-05
5.824819755962528e-05
0.0
0.0
0.0
0.0
2.241184372975149e-05
5.679340783233427e-05
7.869292678947208e-05
8.933830462829524e-05
-7.243413698093376e-20
-5.36433685339104e-20
-1.1684595379947748e-20
1.3993145630389572e-20
5.729575915841041e-05
6.49446847104487e-05
5.348486371671138e-05
2.2283281263657537e-05
-5.729575915841017e-05
-6.49446847104483e-05
-5.3484863716711195e-05
-2.2283281263657503e-05
-1.7398915450180164e-05
-2.8521150689414512e-05
-6.376058373329064e-06
-2.3000443169163957e-05
-5.030777141332906e-06
-1.0862732074008214e-05
1.7398915450180015e-05
2.852115068941451e-05
6.376058373329026e-06
2.3000443169163967e-05
5.030777141332822e-06
1.0862732074008062e-05
1.8686099075799465e-05
3.4850599867430624e-05
5.709390059958468e-05
4.316778103573031e-05
5.0717842226255625e-05
2.0167337866566334e-05
8.397550987555959e-05
7.818401386771655e-05
6.51115224172587e-05
6.87701070877173e-05
7.014229955859152e-05
7.963283916172542e-05
-8.397550987555928e-05
-7.818401386771643e-05
-6.51115224172584e-05
-6.877010708771712e-05
-7.014229955859114e-05
-7.963283916172507e-05
-3.485059986743048e-05
-1.868609907579941e-05
-5.071784222625534e-05
-2.016733786656627e-05
-5.7093900599584346e-05
-4.3167781035730165e-05
-3.501247789475322e-05
-2.5430400505738297e-05
-3.255729349789749e-05
-1.6164500791631196e-05
-8.312820020532805e-06
-7.549749515298718e-06
-5.791496007843044e-06
-2.1718600413250177e-06
-3.6139192992077654e-06
-1.1459820993737344e-05
-1.5156015011369408e-05
-1.9281438095265754e-05
3.501247789475323e-05
2.5430400505738195e-05
3.255729349789746e-05
1.6164500791631206e-05
8.312820020532828e-06
7.549749515298711e-06
5.791496007842897e-06
2.1718600413248745e-06
3.6139192992076358e-06
1.1459820993737292e-05
1.92814380952657e-05
1.5156015011369304e-05
1.3352540540028668e-05
1.6563143223038918e-05
2.4875963243570893e-05
4.972297208041384e-05
5.444640348662351e-05
5.821077510298749e-05
2.1201821390999338e-05
2.1889109988725904e-05
3.892933700772177e-05
4.6881732032262485e-05
4.1715739499492704e-05
3.4165989984193874e-05
8.875543933488469e-05
8.698644347177224e-05
8.481458343044726e-05
5.6438724722505346e-05
4.1014483153290255e-05
5.535570568563918e-05
7.383764017268555e-05
6.644488365902872e-05
7.051172069700861e-05
7.399092790812072e-05
8.025097618541766e-05
7.663705688620995e-05
-8.875543933488439e-05
-8.698644347177197e-05
-8.481458343044707e-05
-5.643872472250525e-05
-4.101448315329021e-05
-5.535570568563903e-05
-7.383764017268514e-05
-6.644488365902839e-05
-7.051172069700825e-05
-7.399092790812042e-05
-8.025097618541741e-05
-7.663705688620976e-05
-1.3352540540028628e-05
-2.487596324357082e-05
-1.6563143223038867e-05
-2.1201821390999263e-05
-2.188910998872586e-05
-3.8929337007721635e-05
-4.9722972080413705e-05
-5.4446403486623304e-05
-5.821077510298725e-05
-4.688173203226217e-05
-4.171573949949246e-05
-3.416598998419371e-05
-4.126249246590761e-05
-3.082310367294948e-05
-2.1989264332157087e-05
-1.4688542388302564e-05
-8.875713932750812e-06
-4.52624852150644e-06
-1.629210004076356e-06
-1.8101950554297122e-07
-9.050531850971025e-05
-8.931796220324983e-05
-8.690154509847817e-05
-8.318602938083266e-05
-7.806837958223871e-05
-7.141896420158294e-05
-6.309031759595836e-05
-5.292915527538956e-05
4.1262492465907774e-05
3.082310367294945e-05
2.1989264332156958e-05
1.46885423883024e-05
8.875713932750651e-06
4.526248521506287e-06
1.629210004076209e-06
1.8101950554282521e-07
-3.3864633355099216e-06
-1.2528858714462536e-05
-2.162618749264653e-05
-2.9732900368494217e-05
-3.6468241550289425e-05
-4.1637078826951166e-05
-4.513140404333968e-05
-4.6892993320249877e-05
3.386463335509934e-06
1.2528858714462579e-05
2.1626187492646584e-05
2.9732900368494258e-05
3.6468241550289465e-05
4.163707882695122e-05
4.513140404333981e-05
4.689299332025008e-05
-1.1666662809480926e-05
-3.2267213923008974e-05
-4.9429699869426035e-05
-6.337983719393647e-05
-7.43103154480821e-05
-8.237529657697187e-05
-8.768875219917364e-05
-9.032429900416734e-05
0.0
0.0
0.0
0.0
0.0
0.0
0.0
0.0
9.050531850971073e-05
8.931796220325026e-05
8.69015450984784e-05
8.31860293808329e-05
7.806837958223904e-05
7.141896420158328e-05
6.309031759595861e-05
5.292915527538981e-05
0.0
0.0
0.0
0.0
0.0
0.0
0.0
0.0
1.1666662809480935e-05
3.2267213923008994e-05
4.942969986942605e-05
6.337983719393654e-05
7.431031544808225e-05
8.2375296576972e-05
8.76887521991739e-05
9.032429900416783e-05
-7.295862485852869e-20
-7.081904834263668e-20
-6.263037161512276e-20
-4.220121827133215e-20
-2.0753769138839858e-20
-4.737884337329726e-21
9.769912397282858e-21
1.033689201039255e-20
5.269957749487647e-05
6.086298320583513e-05
6.473276412550436e-05
6.395217745812331e-05
5.8235327847815946e-05
4.748187104939848e-05
3.183637621785006e-05
1.1650525442890238e-05
-5.2699577494876224e-05
-6.0862983205834844e-05
-6.473276412550402e-05
-6.39521774581229e-05
-5.8235327847815655e-05
-4.748187104939833e-05
-3.1836376217850016e-05
-1.165052544289023e-05
-1.4502819651407108e-05
-2.027283502050063e-05
-2.586669220180018e-05
-3.1017264233365546e-05
-3.0231997975501806e-06
-1.0052668193932949e-05
-1.836360771220126e-05
-2.7969167264415496e-05
-2.6868889664200585e-06
-7.025401117236211e-06
-9.945550452308635e-06
-1.1414106295312534e-05
1.4502819651406942e-05
2.027283502050051e-05
2.5866692201800113e-05
3.101726423336556e-05
3.0231997975501285e-06
1.005266819393292e-05
1.836360771220125e-05
2.7969167264415527e-05
2.6868889664199844e-06
7.0254011172361115e-06
9.945550452308499e-06
1.1414106295312368e-05
1.0189401343273689e-05
2.5401310811272613e-05
3.341009802195662e-05
3.476266776402392e-05
5.957573403228019e-05
5.424719402835684e-05
4.7321740044874966e-05
3.850158220152998e-05
5.6552534234730025e-05
4.4194525834423934e-05
2.895813233267367e-05
1.0532414937114528e-05
8.288411609587155e-05
8.406156532784349e-05
8.116719568197814e-05
7.419115172559444e-05
6.356045138018739e-05
6.639436470971596e-05
6.82130368993283e-05
6.910181313369697e-05
6.62473403466074e-05
7.341976582695213e-05
7.815858735163686e-05
8.051591942900937e-05
-8.28841160958713e-05
-8.406156532784333e-05
-8.116719568197798e-05
-7.419115172559428e-05
-6.356045138018707e-05
-6.639436470971569e-05
-6.82130368993281e-05
-6.910181313369681e-05
-6.6247340346607e-05
-7.34197658269517e-05
-7.815858735163652e-05
-8.051591942900905e-05
-3.476266776402385e-05
-3.341009802195649e-05
-2.540131081127252e-05
-1.0189401343273658e-05
-5.655253423472967e-05
-4.4194525834423696e-05
-2.8958132332673566e-05
-1.0532414937114489e-05
-5.957573403227978e-05
-5.4247194028356564e-05
-4.732174004487477e-05
-3.8501582201529916e-05
-3.935010061853637e-05
-3.06228272351275e-05
-2.4458545600045248e-05
-2.601540679435771e-05
-2.7638713045312447e-05
-3.7872242176373464e-05
-1.5192266838801512e-05
-1.6873602857915673e-05
-4.079981930954719e-06
-1.267291930982703e-05
-3.8894636809224995e-06
-1.094605939831129e-05
-7.233469322974934e-06
-4.344785188831938e-06
-1.2665524289706096e-06
-2.7153126517298903e-06
-1.6270655086301757e-06
-5.9600164021756345e-06
-1.2792043632929254e-05
-1.007818659677031e-05
-1.894602244645141e-05
-1.1730038086242125e-05
-2.1375814405236467e-05
-1.6833891129333342e-05
3.935010061853643e-05
3.0622827235127464e-05
2.4458545600045146e-05
2.6015406794357623e-05
2.7638713045312372e-05
3.7872242176373504e-05
1.519226683880151e-05
1.68736028579157e-05
4.079981930954733e-06
1.2672919309827063e-05
3.889463680922498e-06
1.0946059398311278e-05
7.233469322974796e-06
4.344785188831788e-06
1.2665524289704699e-06
2.7153126517297425e-06
1.6270655086300435e-06
5.96001640217551e-06
1.0078186596770222e-05
1.2792043632929215e-05
2.1375814405236372e-05
1.6833891129333312e-05
1.8946022446451305e-05
1.1730038086242017e-05
1.6290691664193918e-05
7.942334715892411e-06
2.3740365783018596e-05
8.687666671492838e-06
2.782034771397458e-05
2.1360585981318927e-05
5.100278454724012e-05
4.723326614906566e-05
5.9132867408320405e-05
4.927527261721451e-05
6.104143714040139e-05
5.486468869211909e-05
2.97889588950735e-05
1.1249390552448378e-05
3.149415436300789e-05
1.1403030440841063e-05
3.966562273516496e-05
3.803079756278577e-05
4.26551816972129e-05
4.964935242809214e-05
3.627951112527153e-05
4.6620508825257404e-05
3.239004744434869e-05
3.567444942694611e-05
8.754610637507268e-05
8.899424352889378e-05
8.538173943094889e-05
8.794707496344683e-05
8.411518700197833e-05
8.523176231171698e-05
6.247354476295829e-05
4.9353977781788086e-05
4.0699797590005724e-05
4.1201424477412225e-05
4.819650141782381e-05
6.17569765949831e-05
7.549449377002932e-05
7.115195059384569e-05
6.51583431900511e-05
6.721683127177005e-05
6.714252386427527e-05
7.34870146812252e-05
7.126725881059315e-05
7.559482678943345e-05
8.184302153025876e-05
7.833822114520379e-05
8.021595602162867e-05
7.237820474302821e-05
-8.754610637507242e-05
-8.89942435288934e-05
-8.538173943094867e-05
-8.794707496344653e-05
-8.411518700197812e-05
-8.523176231171681e-05
-6.24735447629581e-05
-4.935397778178805e-05
-4.069979759000564e-05
-4.120142447741221e-05
-4.819650141782367e-05
-6.17569765949829e-05
-7.549449377002895e-05
-7.115195059384535e-05
-6.515834319005076e-05
-6.721683127176975e-05
-6.71425238642749e-05
-7.348701468122482e-05
-7.126725881059292e-05
-7.559482678943307e-05
-8.18430215302586e-05
-7.833822114520348e-05
-8.021595602162847e-05
-7.237820474302801e-05
-7.942334715892392e-06
-1.6290691664193864e-05
-2.7820347713974487e-05
-2.136058598131886e-05
-2.374036578301852e-05
-8.687666671492813e-06
-2.9788958895073394e-05
-1.1249390552448341e-05
-3.149415436300783e-05
-1.1403030440841041e-05
-3.9665622735164834e-05
-3.803079756278562e-05
-5.1002784547239935e-05
-4.723326614906556e-05
-5.9132867408320154e-05
-4.927527261721438e-05
-6.104143714040113e-05
-5.486468869211885e-05
-4.2655181697212645e-05
-4.964935242809184e-05
-3.627951112527136e-05
-4.662050882525713e-05
-3.239004744434855e-05
-3.567444942694593e-05
-4.1049052051987266e-05
-4.041057805490324e-05
-3.563010754350139e-05
-2.179797281205749e-05
-1.796253144511603e-05
-2.1224960312758586e-05
-3.5983875596617324e-05
-3.369457599910341e-05
-3.073212067029669e-05
-2.9026606987985126e-05
-3.398652959110647e-05
-3.0022998380152972e-05
-2.4573266420750204e-05
-1.9732215294640917e-05
-2.0860541738861097e-05
-8.348356948305901e-06
-4.042524696508277e-06
-4.163930973772734e-06
-6.994170730879192e-06
-3.3425121176787504e-06
-3.6358975713215506e-06
-8.008787210684077e-06
-1.2339102479213166e-05
-1.172843442234277e-05
-8.692964370277262e-06
-8.145134049921522e-06
-6.3370330321843635e-06
-1.4481371538211025e-06
-5.430524032747128e-07
-9.049958028266902e-07
-4.3275679788403265e-06
-2.339573958111819e-06
-1.9853628273816773e-06
-2.8943696458654022e-06
-3.8006129576073624e-06
-4.883293876908255e-06
-5.7168496103074105e-06
-9.08611913165189e-06
-8.071359146926435e-06
-1.3020949007071078e-05
-1.3946302482804348e-05
-1.6462114217688214e-05
-2.1213825652166606e-05
-2.5937952859091857e-05
-2.3720622603869525e-05
-1.7250893076105875e-05
-1.3486157184176019e-05
-1.519594645714785e-05
4.104905205198742e-05
4.0410578054903356e-05
3.563010754350145e-05
2.1797972812057358e-05
1.796253144511587e-05
2.1224960312758464e-05
3.598387559661734e-05
3.369457599910342e-05
3.0732120670296655e-05
2.9026606987985048e-05
3.002299838015291e-05
3.398652959110646e-05
2.4573266420750238e-05
1.9732215294640937e-05
2.0860541738861134e-05
8.348356948305934e-06
4.042524696508306e-06
4.1639309737727605e-06
6.99417073087917e-06
3.342512117678718e-06
3.6358975713215362e-06
8.008787210684084e-06
1.233910247921318e-05
1.172843442234277e-05
8.692964370277105e-06
8.145134049921371e-06
6.33703303218421e-06
1.448137153820956e-06
5.43052403274567e-07
9.049958028265464e-07
4.327567978840216e-06
2.3395739581117234e-06
1.985362827381559e-06
2.8943696458652637e-06
3.800612957607219e-06
4.883293876908117e-06
5.716849610307349e-06
8.071359146926365e-06
9.086119131651847e-06
2.121382565216659e-05
2.5937952859091857e-05
2.372062260386948e-05
1.3020949007070951e-05
1.3946302482804195e-05
1.6462114217688092e-05
1.725089307610579e-05
1.348615718417594e-05
1.5195946457147795e-05
5.611225508782081e-06
1.1016990452479102e-05
6.974465755963228e-06
9.286614709845436e-06
9.779255591725226e-06
1.7723553393502765e-05
2.6160217567761496e-05
3.063979733058662e-05
3.006265587271544e-05
2.174180323088105e-05
1.930514353685836e-05
1.5141212563081758e-05
4.1836053057916436e-05
4.6670737833916826e-05
4.4750549406923314e-05
5.086991926779808e-05
5.20124260134208e-05
5.610714555367192e-05
5.8289323469937234e-05
6.13085472188417e-05
6.178286116465547e-05
5.6911271561935914e-05
5.23168413924813e-05
5.4200349818429774e-05
1.0818788824550896e-05
2.0732784974824952e-05
1.105597340781992e-05
1.1519818649261425e-05
1.1601847958516752e-05
2.212061596256536e-05
4.549727983700803e-05
5.222242808718983e-05
4.6586914707507645e-05
3.104457936013571e-05
2.1584720722184582e-05
3.0479727214560255e-05
5.4579986677282765e-05
4.894735273925611e-05
5.2289864856934875e-05
4.316067346892112e-05
3.922375232153924e-05
3.852283499637798e-05
2.796840663011962e-05
1.949153702689828e-05
2.6794400574035427e-05
3.8739973681374226e-05
4.448540837581075e-05
4.0849510804489094e-05
9.017799740613193e-05
8.919296140079159e-05
8.97360138040662e-05
8.658667830122556e-05
8.490304663384686e-05
8.564104991929129e-05
8.224189311239364e-05
7.856601360166258e-05
8.184043696168392e-05
8.639743685461839e-05
8.711689870497636e-05
8.802189450780305e-05
6.327996116730284e-05
6.297910370661465e-05
5.6705028617802186e-05
3.2219839012071655e-05
2.2379832006665566e-05
3.207697670683346e-05
6.08203380789775e-05
5.965157571222023e-05
5.452424584769535e-05
4.874176798393064e-05
4.91257463925655e-05
5.599095899799474e-05
7.778278081870987e-05
7.692540618941896e-05
7.466756006291827e-05
6.284266624719936e-05
5.8009939550167844e-05
6.209997508698666e-05
7.08985246757478e-05
6.772293485914662e-05
6.801040303187137e-05
6.901460300443138e-05
7.035070670532417e-05
7.245307321568297e-05
6.821813123673923e-05
6.988549727514376e-05
7.222507123325552e-05
8.046368593254368e-05
8.197752632841128e-05
8.242643423522784e-05
7.323021660956883e-05
7.383239227848985e-05
7.754314035831964e-05
7.897802094983089e-05
7.545683986615258e-05
7.744220269353418e-05
-9.017799740613146e-05
-8.919296140079121e-05
-8.973601380406584e-05
-8.658667830122527e-05
-8.490304663384659e-05
-8.564104991929102e-05
-8.22418931123935e-05
-7.856601360166243e-05
-8.184043696168381e-05
-8.639743685461812e-05
-8.802189450780271e-05
-8.71168987049761e-05
-6.327996116730273e-05
-6.297910370661448e-05
-5.670502861780214e-05
-3.2219839012071635e-05
-2.237983200666554e-05
-3.2076976706833435e-05
-6.082033807897727e-05
-5.9651575712219985e-05
-5.452424584769518e-05
-4.874176798393054e-05
-5.599095899799459e-05
-4.912574639256544e-05
-7.778278081870954e-05
-7.692540618941858e-05
-7.46675600629179e-05
-6.284266624719911e-05
-5.800993955016761e-05
-6.20999750869864e-05
-7.08985246757474e-05
-6.772293485914622e-05
-6.801040303187097e-05
-6.9014603004431e-05
-7.03507067053238e-05
-7.245307321568259e-05
-6.821813123673891e-05
-6.988549727514349e-05
-7.222507123325521e-05
-8.046368593254338e-05
-8.1977526328411e-05
-8.242643423522762e-05
-7.323021660956864e-05
-7.383239227848969e-05
-7.754314035831949e-05
-7.897802094983064e-05
-7.545683986615234e-05
-7.744220269353387e-05
-5.611225508782066e-06
-6.974465755963209e-06
-1.1016990452479063e-05
-2.6160217567761415e-05
-3.0639797330586533e-05
-3.006265587271534e-05
-9.28661470984541e-06
-9.779255591725201e-06
-1.772355339350271e-05
-2.1741803230880982e-05
-1.5141212563081717e-05
-1.9305143536858298e-05
-1.0818788824550854e-05
-2.0732784974824874e-05
-1.1055973407819882e-05
-1.1519818649261405e-05
-1.1601847958516735e-05
-2.2120615962565325e-05
-4.5497279837007836e-05
-5.222242808718958e-05
-4.658691470750748e-05
-3.1044579360135634e-05
-3.047972721456015e-05
-2.1584720722184517e-05
-4.183605305791634e-05
-4.6670737833916664e-05
-4.475054940692324e-05
-5.08699192677979e-05
-5.201242601342056e-05
-5.610714555367169e-05
-5.828932346993696e-05
-6.130854721884132e-05
-6.178286116465516e-05
-5.6911271561935703e-05
-5.420034981842958e-05
-5.231684139248113e-05
-5.457998667728239e-05
-4.894735273925579e-05
-5.228986485693454e-05
-4.316067346892092e-05
-3.9223752321539085e-05
-3.852283499637781e-05
-2.7968406630119513e-05
-1.949153702689822e-05
-2.679440057403532e-05
-3.873997368137403e-05
-4.448540837581048e-05
-4.084951080448885e-05
-4.413498004308839e-05
-3.849696696678552e-05
-3.3278921315531606e-05
-2.846747151623049e-05
-2.4051674451639354e-05
-2.0022540250295423e-05
-1.637287454190106e-05
-1.3097102087868837e-05
-1.0191058589640788e-05
-7.651763721725547e-06
-5.4771910071074105e-06
-3.666048007140386e-06
-2.2175770083557553e-06
-1.1313831546192056e-06
-4.0729429560321764e-07
-4.5254867702121476e-08
-9.061407793186217e-05
-9.032134587183415e-05
-8.972811224499405e-05
-8.883119574339055e-05
-8.762409422991177e-05
-8.60979626232129e-05
-8.42418246401869e-05
-8.204273246923809e-05
-7.94859479444225e-05
-7.655516505291497e-05
-7.323278197674314e-05
-6.950022523744607e-05
-6.533832400805341e-05
-6.072773118072613e-05
-5.564940782642004e-05
-5.008550253467627e-05
4.413498004308859e-05
3.8496966966785626e-05
3.327892131553162e-05
2.8467471516230422e-05
2.405167445163924e-05
2.002254025029528e-05
1.6372874541900894e-05
1.3097102087868673e-05
1.0191058589640624e-05
7.651763721725389e-06
5.4771910071072555e-06
3.6660480071402347e-06
2.2175770083556075e-06
1.1313831546190589e-06
4.072942956030716e-07
4.525486770197546e-08
-1.420288433797932e-06
-5.566200620253428e-06
-1.0183605959370725e-05
-1.4861885058866184e-05
-1.9422955140689896e-05
-2.3765432501080994e-05
-2.7824306692793157e-05
-3.155498357543133e-05
-3.492556405708499e-05
-3.79126173758411e-05
-4.0498666579005796e-05
-4.2670603824915303e-05
-4.441865400238147e-05
-4.573569024646058e-05
-4.661682065187398e-05
-4.7059533608865005e-05
1.4202884337979354e-06
5.5662006202534495e-06
1.0183605959370762e-05
1.4861885058866232e-05
1.942295514068995e-05