# vtk DataFile Version 3.0
PDE solution
ASCII
DATASET UNSTRUCTURED_GRID
POINTS 65 double
-1.0 -1.0 0.0
-1.0 0.0 0.0
-1.0 1.0 0.0
0.0 -1.0 0.0
0.0 0.0 0.0
0.0 1.0 0.0
1.0 -1.0 0.0
1.0 0.0 0.0
-1.0 -0.5 0.0
-1.0 0.5 0.0
-0.5 -1.0 0.0
-0.5 0.0 0.0
0.0 -0.5 0.0
-0.5 1.0 0.0
0.0 0.5 0.0
0.5 -1.0 0.0
0.5 0.0 0.0
1.0 -0.5 0.0
-0.5 -0.5 0.0
0.5 -0.5 0.0
-0.5 0.5 0.0
-1.0 -0.25 0.0
-1.0 -0.75 0.0
-1.0 0.75 0.0
-1.0 0.25 0.0
-0.25 -1.0 0.0
-0.75 -1.0 0.0
-0.25 0.0 0.0
-0.75 0.0 0.0
0.0 -0.25 0.0
0.0 -0.75 0.0
-0.25 1.0 0.0
-0.75 1.0 0.0
0.0 0.75 0.0
0.0 0.25 0.0
0.75 -1.0 0.0
0.25 -1.0 0.0
0.75 0.0 0.0
0.25 0.0 0.0
1.0 -0.25 0.0
1.0 -0.75 0.0
-0.75 -0.75 0.0
-0.25 -0.25 0.0
0.25 -0.75 0.0
0.75 -0.25 0.0
-0.75 0.25 0.0
-0.25 0.75 0.0
-0.75 -0.25 0.0
-0.75 -0.5 0.0
-0.5 -0.25 0.0
-0.25 -0.75 0.0
-0.5 -0.75 0.0
-0.25 -0.5 0.0
0.25 -0.25 0.0
0.5 -0.25 0.0
0.25 -0.5 0.0
0.75 -0.75 0.0
0.5 -0.75 0.0
0.75 -0.5 0.0
-0.75 0.75 0.0
-0.75 0.5 0.0
-0.5 0.75 0.0
-0.25 0.25 0.0
-0.5 0.25 0.0
-0.25 0.5 0.0
CELLS 96 384
3 1 21 28
3 28 11 47
3 21 8 47
3 47 21 28
3 8 48 22
3 22 0 41
3 48 18 41
3 41 22 48
3 11 49 27
3 27 4 42
3 49 18 42
3 42 27 49
3 18 49 48
3 48 8 47
3 49 11 47
3 47 49 48
3 3 25 30
3 30 12 50
3 25 10 50
3 50 30 25
3 10 51 26
3 26 0 41
3 51 18 41
3 41 26 51
3 12 52 29
3 29 4 42
3 52 18 42
3 42 52 29
3 18 51 52
3 52 12 50
3 51 10 50
3 50 51 52
3 4 38 29
3 29 12 53
3 38 16 53
3 53 38 29
3 16 54 37
3 37 7 44
3 54 19 44
3 44 54 37
3 12 55 30
3 30 3 43
3 55 19 43
3 43 55 30
3 19 55 54
3 54 16 53
3 55 12 53
3 53 54 55
3 6 35 40
3 40 17 56
3 35 15 56
3 56 40 35
3 15 57 36
3 36 3 43
3 57 19 43
3 43 57 36
3 17 58 39
3 39 7 44
3 58 19 44
3 44 58 39
3 19 58 57
3 57 15 56
3 58 17 56
3 56 57 58
3 2 23 32
3 32 13 59
3 23 9 59
3 59 23 32
3 9 60 24
3 24 1 45
3 60 20 45
3 45 24 60
3 13 61 31
3 31 5 46
3 61 20 46
3 46 61 31
3 20 60 61
3 61 13 59
3 60 9 59
3 59 61 60
3 4 27 34
3 34 14 62
3 27 11 62
3 62 34 27
3 11 63 28
3 28 1 45
3 63 20 45
3 45 28 63
3 14 64 33
3 33 5 46
3 64 20 46
3 46 33 64
3 20 64 63
3 63 11 62
3 64 14 62
3 62 64 63
CELL_TYPES 96
5
5
5
5
5
5
5
5
5
5
5
5
5
5
5
5
5
5
5
5
5
5
5
5
5
5
5
5
5
5
5
5
5
5
5
5
5
5
5
5
5
5
5
5
5
5
5
5
5
5
5
5
5
5
5
5
5
5
5
5
5
5
5
5
5
5
5
5
5
5
5
5
5
5
5
5
5
5
5
5
5
5
5
5
5
5
5
5
5
5
5
5
5
5
5
5
POINT_DATA 65
SCALARS u(x,y) double 1
LOOKUP_TABLE default
4.878825359735052e+287
4.276095133218409e+287
3.571711946202168e+287
4.276095133218409e+287
0.0
0.0
3.571711946202168e+287
0.0
4.565161211393118e+287
3.89579021526912e+287
4.565161211393118e+287
4.030680348526251e+287
4.030680348526252e+287
3.325130139235187e+287
0.0
3.89579021526912e+287
0.0
3.3251301392351864e+287
4.4858844403634894e+287
3.736405098720101e+287
3.736405098720101e+287
4.4021903494561485e+287
4.8593860997365414e+287
3.66854458426968e+287
4.0981556020224306e+287
4.4021903494561485e+287
4.8593860997365414e+287
3.2541681228417735e+287
4.3198572456621536e+287
3.2541681228417735e+287
4.319857245662154e+287
2.569796271872613e+287
3.579555045853355e+287
0.0
0.0
3.668544584269679e+287
4.0981556020224306e+287
0.0
0.0
2.5697962718726115e+287
3.5795550458533534e+287
4.684924362223741e+287
3.7866532615293165e+287
4.1317058502844756e+287
2.790818075575957e+287
4.131705850284475e+287
2.790818075575958e+287
4.421437704695079e+287
4.581677670548875e+287
4.066553381305364e+287
4.4214377046950806e+287
4.581677670548875e+287
4.066553381305364e+287
3.225553199640071e+287
3.109656138009173e+287
3.954901586346455e+287
3.711527041907808e+287
3.919991400216976e+287
3.449416521262263e+287
3.711527041907808e+287
3.9199914002169765e+287
3.4494165212622644e+287
3.22555319964007e+287
3.954901586346455e+287
3.109656138009173e+287