# vtk DataFile Version 3.0
PDE solution
ASCII
DATASET UNSTRUCTURED_GRID
POINTS 21 double
-1.0 -1.0 0.0
-1.0 0.0 0.0
-1.0 1.0 0.0
0.0 -1.0 0.0
0.0 0.0 0.0
0.0 1.0 0.0
1.0 -1.0 0.0
1.0 0.0 0.0
-1.0 -0.5 0.0
-1.0 0.5 0.0
-0.5 -1.0 0.0
-0.5 0.0 0.0
0.0 -0.5 0.0
-0.5 1.0 0.0
0.0 0.5 0.0
0.5 -1.0 0.0
0.5 0.0 0.0
1.0 -0.5 0.0
-0.5 -0.5 0.0
0.5 -0.5 0.0
-0.5 0.5 0.0
CELLS 6 42
6 1 4 0 18 8 11
6 3 0 4 18 12 10
6 4 7 3 19 12 16
6 6 7 3 19 15 17
6 2 1 5 20 13 9
6 4 1 5 20 14 11
CELL_TYPES 6
22
22
22
22
22
22
POINT_DATA 21
SCALARS u(x,y) double 1
LOOKUP_TABLE default
-0.020301217
-0.123691455
-0.3261708
0.1334621
0.0
0.0
0.38034776
-1.1445635e-16
-0.014004583
-0.3053375
0.0924826
-0.05275023
0.11823413
-0.32258955
6.0324376e-17
0.36444357
0.0
0.37317425
0.02474107
0.2307129
-0.2148416