# vtk DataFile Version 3.0
PDE solution
ASCII
DATASET UNSTRUCTURED_GRID
POINTS 49665 double
-1.0 -1.0 0.0
-1.0 0.0 0.0
-1.0 1.0 0.0
0.0 -1.0 0.0
0.0 0.0 0.0
0.0 1.0 0.0
1.0 -1.0 0.0
1.0 0.0 0.0
-1.0 -0.5 0.0
-1.0 0.5 0.0
-0.5 -1.0 0.0
-0.5 0.0 0.0
0.0 -0.5 0.0
-0.5 1.0 0.0
0.0 0.5 0.0
0.5 -1.0 0.0
0.5 0.0 0.0
1.0 -0.5 0.0
-0.5 -0.5 0.0
0.5 -0.5 0.0
-0.5 0.5 0.0
-1.0 -0.25 0.0
-1.0 -0.75 0.0
-1.0 0.75 0.0
-1.0 0.25 0.0
-0.25 -1.0 0.0
-0.75 -1.0 0.0
-0.25 0.0 0.0
-0.75 0.0 0.0
0.0 -0.25 0.0
0.0 -0.75 0.0
-0.25 1.0 0.0
-0.75 1.0 0.0
0.0 0.75 0.0
0.0 0.25 0.0
0.75 -1.0 0.0
0.25 -1.0 0.0
0.75 0.0 0.0
0.25 0.0 0.0
1.0 -0.25 0.0
1.0 -0.75 0.0
-0.75 -0.75 0.0
-0.25 -0.25 0.0
0.25 -0.75 0.0
0.75 -0.25 0.0
-0.75 0.25 0.0
-0.25 0.75 0.0
-0.75 -0.25 0.0
-0.75 -0.5 0.0
-0.5 -0.25 0.0
-0.25 -0.75 0.0
-0.25 -0.5 0.0
-0.5 -0.75 0.0
0.25 -0.25 0.0
0.5 -0.25 0.0
0.25 -0.5 0.0
0.75 -0.75 0.0
0.75 -0.5 0.0
0.5 -0.75 0.0
-0.75 0.75 0.0
-0.75 0.5 0.0
-0.5 0.75 0.0
-0.25 0.25 0.0
-0.25 0.5 0.0
-0.5 0.25 0.0
-1.0 -0.125 0.0
-1.0 -0.375 0.0
-1.0 -0.625 0.0
-1.0 -0.875 0.0
-1.0 0.875 0.0
-1.0 0.625 0.0
-1.0 0.375 0.0
-1.0 0.125 0.0
-0.125 -1.0 0.0
-0.375 -1.0 0.0
-0.625 -1.0 0.0
-0.875 -1.0 0.0
-0.125 0.0 0.0
-0.375 0.0 0.0
-0.625 0.0 0.0
-0.875 0.0 0.0
0.0 -0.125 0.0
0.0 -0.375 0.0
0.0 -0.625 0.0
0.0 -0.875 0.0
-0.125 1.0 0.0
-0.375 1.0 0.0
-0.625 1.0 0.0
-0.875 1.0 0.0
0.0 0.875 0.0
0.0 0.625 0.0
0.0 0.375 0.0
0.0 0.125 0.0
0.875 -1.0 0.0
0.625 -1.0 0.0
0.375 -1.0 0.0
0.125 -1.0 0.0
0.875 0.0 0.0
0.625 0.0 0.0
0.375 0.0 0.0
0.125 0.0 0.0
1.0 -0.125 0.0
1.0 -0.375 0.0
1.0 -0.625 0.0
1.0 -0.875 0.0
-0.875 -0.875 0.0
-0.625 -0.625 0.0
-0.375 -0.375 0.0
-0.125 -0.125 0.0
0.125 -0.875 0.0
0.375 -0.625 0.0
0.625 -0.375 0.0
0.875 -0.125 0.0
-0.875 0.125 0.0
-0.625 0.375 0.0
-0.375 0.625 0.0
-0.125 0.875 0.0
-0.625 -0.125 0.0
-0.875 -0.375 0.0
-0.625 -0.5 0.0
-0.875 -0.5 0.0
-0.5 -0.375 0.0
-0.5 -0.125 0.0
-0.375 -0.875 0.0
-0.125 -0.625 0.0
-0.375 -0.5 0.0
-0.125 -0.5 0.0
-0.5 -0.625 0.0
-0.5 -0.875 0.0
0.125 -0.375 0.0
0.375 -0.125 0.0
0.5 -0.375 0.0
0.5 -0.125 0.0
0.375 -0.5 0.0
0.125 -0.5 0.0
0.625 -0.875 0.0
0.875 -0.625 0.0
0.625 -0.5 0.0
0.875 -0.5 0.0
0.5 -0.625 0.0
0.5 -0.875 0.0
-0.625 0.875 0.0
-0.875 0.625 0.0
-0.625 0.5 0.0
-0.875 0.5 0.0
-0.5 0.625 0.0
-0.5 0.875 0.0
-0.375 0.125 0.0
-0.125 0.375 0.0
-0.375 0.5 0.0
-0.125 0.5 0.0
-0.5 0.375 0.0
-0.5 0.125 0.0
-0.875 -0.125 0.0
-0.75 -0.125 0.0
-0.875 -0.25 0.0
-0.875 -0.625 0.0
-0.875 -0.75 0.0
-0.75 -0.625 0.0
-0.375 -0.125 0.0
-0.25 -0.125 0.0
-0.375 -0.25 0.0
-0.625 -0.375 0.0
-0.75 -0.375 0.0
-0.625 -0.25 0.0
-0.125 -0.875 0.0
-0.25 -0.875 0.0
-0.125 -0.75 0.0
-0.125 -0.375 0.0
-0.125 -0.25 0.0
-0.25 -0.375 0.0
-0.625 -0.875 0.0
-0.75 -0.875 0.0
-0.625 -0.75 0.0
-0.375 -0.625 0.0
-0.25 -0.625 0.0
-0.375 -0.75 0.0
0.125 -0.125 0.0
0.125 -0.25 0.0
0.25 -0.125 0.0
0.625 -0.125 0.0
0.75 -0.125 0.0
0.625 -0.25 0.0
0.125 -0.625 0.0
0.125 -0.75 0.0
0.25 -0.625 0.0
0.375 -0.375 0.0
0.375 -0.25 0.0
0.25 -0.375 0.0
0.875 -0.875 0.0
0.75 -0.875 0.0
0.875 -0.75 0.0
0.875 -0.375 0.0
0.875 -0.25 0.0
0.75 -0.375 0.0
0.375 -0.875 0.0
0.25 -0.875 0.0
0.375 -0.75 0.0
0.625 -0.625 0.0
0.75 -0.625 0.0
0.625 -0.75 0.0
-0.875 0.875 0.0
-0.75 0.875 0.0
-0.875 0.75 0.0
-0.875 0.375 0.0
-0.875 0.25 0.0
-0.75 0.375 0.0
-0.375 0.875 0.0
-0.25 0.875 0.0
-0.375 0.75 0.0
-0.625 0.625 0.0
-0.75 0.625 0.0
-0.625 0.75 0.0
-0.125 0.125 0.0
-0.25 0.125 0.0
-0.125 0.25 0.0
-0.125 0.625 0.0
-0.125 0.75 0.0
-0.25 0.625 0.0
-0.625 0.125 0.0
-0.75 0.125 0.0
-0.625 0.25 0.0
-0.375 0.375 0.0
-0.25 0.375 0.0
-0.375 0.25 0.0
-1.0 -0.0625 0.0
-1.0 -0.1875 0.0
-1.0 -0.3125 0.0
-1.0 -0.4375 0.0
-1.0 -0.5625 0.0
-1.0 -0.6875 0.0
-1.0 -0.8125 0.0
-1.0 -0.9375 0.0
-1.0 0.9375 0.0
-1.0 0.8125 0.0
-1.0 0.6875 0.0
-1.0 0.5625 0.0
-1.0 0.4375 0.0
-1.0 0.3125 0.0
-1.0 0.1875 0.0
-1.0 0.0625 0.0
-0.0625 -1.0 0.0
-0.1875 -1.0 0.0
-0.3125 -1.0 0.0
-0.4375 -1.0 0.0
-0.5625 -1.0 0.0
-0.6875 -1.0 0.0
-0.8125 -1.0 0.0
-0.9375 -1.0 0.0
-0.0625 0.0 0.0
-0.1875 0.0 0.0
-0.3125 0.0 0.0
-0.4375 0.0 0.0
-0.5625 0.0 0.0
-0.6875 0.0 0.0
-0.8125 0.0 0.0
-0.9375 0.0 0.0
0.0 -0.0625 0.0
0.0 -0.1875 0.0
0.0 -0.3125 0.0
0.0 -0.4375 0.0
0.0 -0.5625 0.0
0.0 -0.6875 0.0
0.0 -0.8125 0.0
0.0 -0.9375 0.0
-0.0625 1.0 0.0
-0.1875 1.0 0.0
-0.3125 1.0 0.0
-0.4375 1.0 0.0
-0.5625 1.0 0.0
-0.6875 1.0 0.0
-0.8125 1.0 0.0
-0.9375 1.0 0.0
0.0 0.9375 0.0
0.0 0.8125 0.0
0.0 0.6875 0.0
0.0 0.5625 0.0
0.0 0.4375 0.0
0.0 0.3125 0.0
0.0 0.1875 0.0
0.0 0.0625 0.0
0.9375 -1.0 0.0
0.8125 -1.0 0.0
0.6875 -1.0 0.0
0.5625 -1.0 0.0
0.4375 -1.0 0.0
0.3125 -1.0 0.0
0.1875 -1.0 0.0
0.0625 -1.0 0.0
0.9375 0.0 0.0
0.8125 0.0 0.0
0.6875 0.0 0.0
0.5625 0.0 0.0
0.4375 0.0 0.0
0.3125 0.0 0.0
0.1875 0.0 0.0
0.0625 0.0 0.0
1.0 -0.0625 0.0
1.0 -0.1875 0.0
1.0 -0.3125 0.0
1.0 -0.4375 0.0
1.0 -0.5625 0.0
1.0 -0.6875 0.0
1.0 -0.8125 0.0
1.0 -0.9375 0.0
-0.9375 -0.9375 0.0
-0.8125 -0.8125 0.0
-0.6875 -0.6875 0.0
-0.5625 -0.5625 0.0
-0.4375 -0.4375 0.0
-0.3125 -0.3125 0.0
-0.1875 -0.1875 0.0
-0.0625 -0.0625 0.0
0.0625 -0.9375 0.0
0.1875 -0.8125 0.0
0.3125 -0.6875 0.0
0.4375 -0.5625 0.0
0.5625 -0.4375 0.0
0.6875 -0.3125 0.0
0.8125 -0.1875 0.0
0.9375 -0.0625 0.0
-0.9375 0.0625 0.0
-0.8125 0.1875 0.0
-0.6875 0.3125 0.0
-0.5625 0.4375 0.0
-0.4375 0.5625 0.0
-0.3125 0.6875 0.0
-0.1875 0.8125 0.0
-0.0625 0.9375 0.0
-0.5625 -0.0625 0.0
-0.6875 -0.1875 0.0
-0.8125 -0.3125 0.0
-0.9375 -0.4375 0.0
-0.5625 -0.5 0.0
-0.6875 -0.5 0.0
-0.8125 -0.5 0.0
-0.9375 -0.5 0.0
-0.5 -0.4375 0.0
-0.5 -0.3125 0.0
-0.5 -0.1875 0.0
-0.5 -0.0625 0.0
-0.4375 -0.9375 0.0
-0.3125 -0.8125 0.0
-0.1875 -0.6875 0.0
-0.0625 -0.5625 0.0
-0.4375 -0.5 0.0
-0.3125 -0.5 0.0
-0.1875 -0.5 0.0
-0.0625 -0.5 0.0
-0.5 -0.5625 0.0
-0.5 -0.6875 0.0
-0.5 -0.8125 0.0
-0.5 -0.9375 0.0
0.0625 -0.4375 0.0
0.1875 -0.3125 0.0
0.3125 -0.1875 0.0
0.4375 -0.0625 0.0
0.5 -0.4375 0.0
0.5 -0.3125 0.0
0.5 -0.1875 0.0
0.5 -0.0625 0.0
0.4375 -0.5 0.0
0.3125 -0.5 0.0
0.1875 -0.5 0.0
0.0625 -0.5 0.0
0.5625 -0.9375 0.0
0.6875 -0.8125 0.0
0.8125 -0.6875 0.0
0.9375 -0.5625 0.0
0.5625 -0.5 0.0
0.6875 -0.5 0.0
0.8125 -0.5 0.0
0.9375 -0.5 0.0
0.5 -0.5625 0.0
0.5 -0.6875 0.0
0.5 -0.8125 0.0
0.5 -0.9375 0.0
-0.5625 0.9375 0.0
-0.6875 0.8125 0.0
-0.8125 0.6875 0.0
-0.9375 0.5625 0.0
-0.5625 0.5 0.0
-0.6875 0.5 0.0
-0.8125 0.5 0.0
-0.9375 0.5 0.0
-0.5 0.5625 0.0
-0.5 0.6875 0.0
-0.5 0.8125 0.0
-0.5 0.9375 0.0
-0.4375 0.0625 0.0
-0.3125 0.1875 0.0
-0.1875 0.3125 0.0
-0.0625 0.4375 0.0
-0.4375 0.5 0.0
-0.3125 0.5 0.0
-0.1875 0.5 0.0
-0.0625 0.5 0.0
-0.5 0.4375 0.0
-0.5 0.3125 0.0
-0.5 0.1875 0.0
-0.5 0.0625 0.0
-0.9375 -0.1875 0.0
-0.8125 -0.0625 0.0
-0.75 -0.1875 0.0
-0.75 -0.0625 0.0
-0.8125 -0.25 0.0
-0.9375 -0.25 0.0
-0.8125 -0.5625 0.0
-0.9375 -0.6875 0.0
-0.8125 -0.75 0.0
-0.9375 -0.75 0.0
-0.75 -0.6875 0.0
-0.75 -0.5625 0.0
-0.4375 -0.1875 0.0
-0.3125 -0.0625 0.0
-0.25 -0.1875 0.0
-0.25 -0.0625 0.0
-0.3125 -0.25 0.0
-0.4375 -0.25 0.0
-0.5625 -0.3125 0.0
-0.6875 -0.4375 0.0
-0.75 -0.3125 0.0
-0.75 -0.4375 0.0
-0.6875 -0.25 0.0
-0.5625 -0.25 0.0
-0.0625 -0.8125 0.0
-0.1875 -0.9375 0.0
-0.25 -0.8125 0.0
-0.25 -0.9375 0.0
-0.1875 -0.75 0.0
-0.0625 -0.75 0.0
-0.1875 -0.4375 0.0
-0.0625 -0.3125 0.0
-0.1875 -0.25 0.0
-0.0625 -0.25 0.0
-0.25 -0.3125 0.0
-0.25 -0.4375 0.0
-0.5625 -0.8125 0.0
-0.6875 -0.9375 0.0
-0.75 -0.8125 0.0
-0.75 -0.9375 0.0
-0.6875 -0.75 0.0
-0.5625 -0.75 0.0
-0.4375 -0.6875 0.0
-0.3125 -0.5625 0.0
-0.25 -0.6875 0.0
-0.25 -0.5625 0.0
-0.3125 -0.75 0.0
-0.4375 -0.75 0.0
0.1875 -0.0625 0.0
0.0625 -0.1875 0.0
0.1875 -0.25 0.0
0.0625 -0.25 0.0
0.25 -0.1875 0.0
0.25 -0.0625 0.0
0.5625 -0.1875 0.0
0.6875 -0.0625 0.0
0.75 -0.1875 0.0
0.75 -0.0625 0.0
0.6875 -0.25 0.0
0.5625 -0.25 0.0
0.1875 -0.5625 0.0
0.0625 -0.6875 0.0
0.1875 -0.75 0.0
0.0625 -0.75 0.0
0.25 -0.6875 0.0
0.25 -0.5625 0.0
0.3125 -0.4375 0.0
0.4375 -0.3125 0.0
0.3125 -0.25 0.0
0.4375 -0.25 0.0
0.25 -0.3125 0.0
0.25 -0.4375 0.0
0.9375 -0.8125 0.0
0.8125 -0.9375 0.0
0.75 -0.8125 0.0
0.75 -0.9375 0.0
0.8125 -0.75 0.0
0.9375 -0.75 0.0
0.8125 -0.4375 0.0
0.9375 -0.3125 0.0
0.8125 -0.25 0.0
0.9375 -0.25 0.0
0.75 -0.3125 0.0
0.75 -0.4375 0.0
0.4375 -0.8125 0.0
0.3125 -0.9375 0.0
0.25 -0.8125 0.0
0.25 -0.9375 0.0
0.3125 -0.75 0.0
0.4375 -0.75 0.0
0.5625 -0.6875 0.0
0.6875 -0.5625 0.0
0.75 -0.6875 0.0
0.75 -0.5625 0.0
0.6875 -0.75 0.0
0.5625 -0.75 0.0
-0.9375 0.8125 0.0
-0.8125 0.9375 0.0
-0.75 0.8125 0.0
-0.75 0.9375 0.0
-0.8125 0.75 0.0
-0.9375 0.75 0.0
-0.8125 0.4375 0.0
-0.9375 0.3125 0.0
-0.8125 0.25 0.0
-0.9375 0.25 0.0
-0.75 0.3125 0.0
-0.75 0.4375 0.0
-0.4375 0.8125 0.0
-0.3125 0.9375 0.0
-0.25 0.8125 0.0
-0.25 0.9375 0.0
-0.3125 0.75 0.0
-0.4375 0.75 0.0
-0.5625 0.6875 0.0
-0.6875 0.5625 0.0
-0.75 0.6875 0.0
-0.75 0.5625 0.0
-0.6875 0.75 0.0
-0.5625 0.75 0.0
-0.0625 0.1875 0.0
-0.1875 0.0625 0.0
-0.25 0.1875 0.0
-0.25 0.0625 0.0
-0.1875 0.25 0.0
-0.0625 0.25 0.0
-0.1875 0.5625 0.0
-0.0625 0.6875 0.0
-0.1875 0.75 0.0
-0.0625 0.75 0.0
-0.25 0.6875 0.0
-0.25 0.5625 0.0
-0.5625 0.1875 0.0
-0.6875 0.0625 0.0
-0.75 0.1875 0.0
-0.75 0.0625 0.0
-0.6875 0.25 0.0
-0.5625 0.25 0.0
-0.4375 0.3125 0.0
-0.3125 0.4375 0.0
-0.25 0.3125 0.0
-0.25 0.4375 0.0
-0.3125 0.25 0.0
-0.4375 0.25 0.0
-0.9375 -0.0625 0.0
-0.9375 -0.125 0.0
-0.875 -0.0625 0.0
-0.6875 -0.0625 0.0
-0.625 -0.0625 0.0
-0.6875 -0.125 0.0
-0.9375 -0.3125 0.0
-0.9375 -0.375 0.0
-0.875 -0.3125 0.0
-0.8125 -0.1875 0.0
-0.8125 -0.125 0.0
-0.875 -0.1875 0.0
-0.9375 -0.5625 0.0
-0.875 -0.5625 0.0
-0.9375 -0.625 0.0
-0.9375 -0.8125 0.0
-0.9375 -0.875 0.0
-0.875 -0.8125 0.0
-0.6875 -0.5625 0.0
-0.625 -0.5625 0.0
-0.6875 -0.625 0.0
-0.8125 -0.6875 0.0
-0.8125 -0.625 0.0
-0.875 -0.6875 0.0
-0.4375 -0.0625 0.0
-0.4375 -0.125 0.0
-0.375 -0.0625 0.0
-0.1875 -0.0625 0.0
-0.125 -0.0625 0.0
-0.1875 -0.125 0.0
-0.4375 -0.3125 0.0
-0.4375 -0.375 0.0
-0.375 -0.3125 0.0
-0.3125 -0.1875 0.0
-0.3125 -0.125 0.0
-0.375 -0.1875 0.0
-0.5625 -0.4375 0.0
-0.5625 -0.375 0.0
-0.625 -0.4375 0.0
-0.8125 -0.4375 0.0
-0.875 -0.4375 0.0
-0.8125 -0.375 0.0
-0.5625 -0.1875 0.0
[...]
POINT_DATA 49665
SCALARS u(x,y) double 1
LOOKUP_TABLE default
3.3566077e-11
-1.1777323e-05
-2.2664108e-05
1.177727e-05
0.0
0.0
2.2663802e-05
0.0
-2.8990805e-06
-2.0202468e-05
2.899145e-06
-8.321141e-06
8.3210825e-06
-1.7303579e-05
0.0
2.0202293e-05
0.0
1.730326e-05
6.0931095e-12
1.5430529e-05
-1.5430736e-05
-6.551793e-06
-7.239972e-07
-2.2067337e-05
-1.6867773e-05
6.551808e-06
7.2406255e-07
-4.290746e-06
-1.08985505e-05
4.290705e-06
1.0898484e-05
-1.03163065e-05
-2.1343369e-05
0.0
0.0
2.2067097e-05
1.6867652e-05
0.0
0.0
1.03160655e-05
2.1343025e-05
3.1136184e-11
-1.5214024e-11
1.5838466e-05
1.0063316e-05
-1.5838576e-05
-1.0063535e-05
-5.7754446e-06
-2.1659876e-06
-3.5118205e-06
5.7754646e-06
3.5117992e-06
2.1660237e-06
7.574173e-06
9.238396e-06
1.2750022e-05
2.0782058e-05
1.6856173e-05
1.9022102e-05
-2.0782356e-05
-1.9022309e-05
-1.68565e-05
-7.5742428e-06
-9.238518e-06
-1.2750132e-05
-8.957886e-06
-4.5370243e-06
-1.6294923e-06
-1.8096466e-07
-2.2516682e-05
-2.1303234e-05
-1.873563e-05
-1.4560904e-05
8.957856e-06
4.5370734e-06
1.6295539e-06
1.8103255e-07
-1.9621787e-06
-6.4579226e-06
-9.813391e-06
-1.1556532e-05
1.9621523e-06
6.4578717e-06
9.813333e-06
1.1556471e-05
-5.603208e-06
-1.4198904e-05
-1.9673858e-05
-2.233571e-05
0.0
0.0
0.0
0.0
2.25164e-05
2.1303043e-05
1.873548e-05
1.4560816e-05
0.0
0.0
0.0
0.0
5.603091e-06
1.4198606e-05
1.967352e-05
2.233539e-05
3.3113064e-11
2.264621e-11
-7.659568e-12
-1.532133e-11
1.4322808e-05
1.6235692e-05
1.3371327e-05
5.5709493e-06
-1.4322897e-05
-1.6235836e-05
-1.3371569e-05
-5.571061e-06
-7.1295676e-06
-4.349113e-06
-1.2575094e-06
-2.7152798e-06
-1.5938142e-06
-5.7495536e-06
4.349172e-06
7.129536e-06
1.5938091e-06
5.749518e-06
1.257538e-06
2.7153349e-06
8.7122635e-06
4.671612e-06
1.26794785e-05
5.041923e-06
1.4273161e-05
1.0791346e-05
2.09939e-05
1.9546233e-05
1.6277902e-05
1.7192753e-05
1.7535363e-05
1.9907973e-05
-1.9546576e-05
-2.0994124e-05
-1.7535574e-05
-1.9908164e-05
-1.627818e-05
-1.7193079e-05
-8.712333e-06
-4.671659e-06
-1.2679654e-05
-5.0419885e-06
-1.427331e-05
-1.0791425e-05
-8.752046e-06
-8.138441e-06
-6.356769e-06
-1.4476457e-06
-5.4285994e-07
-9.033264e-07
-4.040724e-06
-2.077933e-06
-1.8872278e-06
-2.8645761e-06
-3.788481e-06
-4.819777e-06
8.752021e-06
6.356786e-06
8.138416e-06
4.0406862e-06
2.0778978e-06
1.8872015e-06
1.4477056e-06
5.429245e-07
9.033823e-07
2.8645838e-06
4.8197735e-06
3.788515e-06
3.338256e-06
6.2188083e-06
4.1409116e-06
5.3005674e-06
5.4723987e-06
9.732503e-06
1.2429884e-05
1.3610554e-05
1.455192e-05
1.1720328e-05
8.541541e-06
1.04287e-05
2.2189462e-05
2.1746926e-05
2.1203994e-05
1.4109905e-05
1.0253816e-05
1.3839092e-05
1.8458859e-05
1.6610355e-05
1.7627417e-05
1.849768e-05
1.9159372e-05
2.0062707e-05
-2.2189768e-05
-2.1204334e-05
-2.1747186e-05
-1.8459012e-05
-1.6610478e-05
-1.762757e-05
-1.4110215e-05
-1.0254057e-05
-1.3839393e-05
-1.8497967e-05
-2.0062982e-05
-1.9159703e-05
-3.338285e-06
-6.2188606e-06
-4.140947e-06
-5.3006515e-06
-5.472501e-06
-9.732667e-06
-1.242997e-05
-1.36106455e-05
-1.4552033e-05
-1.1720457e-05
-8.541635e-06
-1.0428793e-05
-1.0314193e-05
-7.704737e-06
-5.496561e-06
-3.6716003e-06
-2.2185864e-06
-1.1313783e-06
-4.0721577e-07
-4.521585e-08
-2.2627839e-05
-2.23303e-05
-2.1725815e-05
-2.0796613e-05
-1.951689e-05
-1.7854161e-05
-1.5771631e-05
-1.3230891e-05
1.0314152e-05
7.704732e-06
5.496593e-06
3.6716608e-06
2.2186482e-06
1.1314416e-06
4.0728352e-07
4.5283073e-08
-8.4563754e-07
-3.1317988e-06
-5.406141e-06
-7.4327163e-06
-9.116379e-06
-1.0408395e-05
-1.1281761e-05
-1.1721829e-05
8.456205e-07
3.1317636e-06
5.4060924e-06
7.43266e-06
9.116324e-06
1.0408333e-05
1.12817e-05
1.1721771e-05
-2.9167907e-06
-8.067161e-06
-1.2357938e-05
-1.5845542e-05
-1.8578186e-05
-2.0594509e-05
-2.192309e-05
-2.2582602e-05
0.0
0.0
0.0
0.0
0.0
0.0
0.0
0.0
2.2627542e-05
2.2330045e-05
2.1725598e-05
2.0796428e-05
1.9516725e-05
1.7854029e-05
1.5771533e-05
1.323082e-05
0.0
0.0
0.0
0.0
0.0
0.0
0.0
0.0
2.9167334e-06
8.066981e-06
1.2357657e-05
1.5845226e-05
1.857785e-05
2.0594165e-05
2.192275e-05
2.25823e-05
3.3590276e-11
3.2318412e-11
2.794571e-11
1.4787805e-11
-1.5835474e-12
-1.22033356e-11
-1.6415473e-11
-1.1273805e-11
1.3173534e-05
1.5214767e-05
1.6182523e-05
1.598776e-05
1.4558852e-05
1.1870638e-05
7.959262e-06
2.9126977e-06
-1.3173604e-05
-1.521487e-05
-1.6182647e-05
-1.5987935e-05
-1.4559086e-05
-1.1870876e-05
-7.959432e-06
-2.9127555e-06
-7.753642e-06
-6.4659357e-06
-5.0675267e-06
-3.6251754e-06
-6.716218e-07
-1.7560928e-06
-2.4860242e-06
-2.8530972e-06
-7.556991e-07
-2.5128645e-06
-4.5904103e-06
-6.9917032e-06
3.6252395e-06
5.0675712e-06
6.465925e-06
7.753598e-06
7.557029e-07
2.5128522e-06
4.590383e-06
6.991657e-06
6.716422e-07
1.7561272e-06
2.4860678e-06
2.8531592e-06
8.690125e-06
8.352329e-06
6.3504076e-06
2.5473994e-06
1.4138087e-05
1.1048705e-05
7.2396447e-06
2.6331534e-06
1.4893721e-05
1.3561392e-05
1.1829885e-05
9.624762e-06
2.0720941e-05
2.1015518e-05
2.0292011e-05
1.8548038e-05
1.5890071e-05
1.6598666e-05
1.7053442e-05
1.7275705e-05
1.6561664e-05
1.8354709e-05
1.9539399e-05
2.0128751e-05
-1.8548371e-05
-2.0292338e-05
-2.1015769e-05
-2.0721138e-05
-1.656187e-05
-1.835492e-05
-1.9539595e-05
-2.0128931e-05
-1.5890315e-05
-1.6598975e-05
-1.7053771e-05
-1.7276037e-05
-8.690188e-06
-8.352401e-06
-6.3504676e-06
-2.5474274e-06
-1.413828e-05
-1.1048855e-05
-7.2397384e-06
-2.6331854e-06
-1.4893889e-05
-1.3561522e-05
-1.18299795e-05
-9.624831e-06
-7.654697e-06
-9.836475e-06
-6.908871e-06
-9.467121e-06
-6.113856e-06
-6.5029794e-06
-1.8080921e-06
-1.0860181e-06
-3.165628e-07
-6.787049e-07
-4.0667985e-07
-1.4897736e-06
-3.797667e-06
-4.217993e-06
-1.0198727e-06
-3.1678455e-06
-9.722617e-07
-2.7362094e-06
-3.197617e-06
-2.5191953e-06
-4.7358744e-06
-2.9320965e-06
-5.3432923e-06
-4.2079787e-06
9.836428e-06
7.654693e-06
6.1138776e-06
6.5029967e-06
6.908866e-06
9.467075e-06
3.7976372e-06
4.2179536e-06
1.0198402e-06
3.1678073e-06
9.722332e-07
2.7361857e-06
1.8081441e-06
1.0860809e-06
3.1662694e-07
6.7876965e-07
4.0673982e-07
1.4898224e-06
2.519218e-06
3.1976072e-06
5.3433023e-06
4.2079623e-06
4.7359135e-06
2.9321268e-06
1.9857414e-06
4.0724194e-06
6.955011e-06
5.339821e-06
5.9351673e-06
2.1720184e-06
7.447374e-06
2.8124084e-06
7.8737e-06
2.8508205e-06
9.916585e-06
9.507843e-06
1.2750012e-05
1.1807335e-05
1.47822475e-05
1.2317751e-05
1.5259522e-05
1.3715545e-05
1.2412055e-05
1.0663819e-05
8.097534e-06
8.918689e-06
9.069756e-06
1.1654769e-05
2.1887055e-05
2.2249096e-05
2.134569e-05
2.1987124e-05
2.102908e-05
2.130834e-05
1.561858e-05
1.2338717e-05
1.0175137e-05
1.03005605e-05
1.2049306e-05
1.5439393e-05
1.8873236e-05
1.7787266e-05
1.6288746e-05
1.680333e-05
1.6784961e-05
1.837138e-05
1.8898561e-05
1.7816852e-05
2.0054122e-05
1.8094659e-05
2.0460828e-05
1.9584408e-05
-2.2249358e-05
-2.1887397e-05
-2.1029386e-05
-2.1308686e-05
-2.1345966e-05
-2.1987367e-05
-1.887341e-05
-1.7787406e-05
-1.6288861e-05
-1.680345e-05
-1.678509e-05
-1.837157e-05
-1.5618909e-05
-1.23390055e-05
-1.0175372e-05
-1.0300805e-05
-1.20495715e-05
-1.5439717e-05
-1.7817174e-05
-1.8898812e-05
-2.0461115e-05
-1.9584653e-05
-2.0054438e-05
-1.8094994e-05
-1.9857569e-06
-4.072457e-06
-6.9550697e-06
-5.339868e-06
-5.9352205e-06
-2.1720361e-06
-7.447481e-06
-2.8124546e-06
-7.873858e-06
-2.8508714e-06
-9.916779e-06
-9.507986e-06
-1.2750107e-05
-1.180741e-05
-1.478235e-05
-1.2317828e-05
-1.5259631e-05
-1.3715656e-05
-1.2412177e-05
-1.0663947e-05
-8.097614e-06
-8.918791e-06
-9.069836e-06
-1.1654872e-05
-1.0260944e-05
-8.906362e-06
-1.0101465e-05
-8.995126e-06
-8.422888e-06
-7.682231e-06
-5.448749e-06
-4.4900003e-06
-5.305521e-06
-7.255772e-06
-8.495659e-06
-7.5047983e-06
-2.1729097e-06
-2.0359762e-06
-1.5840127e-06
-3.6195476e-07
-1.35713e-07
-2.2618687e-07
-1.0817203e-06
-5.847942e-07
-4.962462e-07
-7.234609e-07
-1.2206244e-06
-9.499911e-07
-6.142806e-06
-4.93258e-06
-5.2146866e-06
-2.0867078e-06
-1.0102771e-06
-1.0408054e-06
-1.7483392e-06
-8.355286e-07
-9.088748e-07
-2.0019706e-06
-3.084439e-06
-2.9317941e-06
-1.4290172e-06
-2.2712352e-06
-2.0175607e-06
-3.254768e-06
-3.4860652e-06
-4.1149506e-06
-5.3028753e-06
-6.4838473e-06
-5.9294916e-06
-4.31216e-06
-3.371083e-06
-3.798503e-06
1.0260904e-05
1.0101421e-05
8.906338e-06
5.448781e-06
4.4900507e-06
5.3055583e-06
8.995079e-06
8.422842e-06
7.682206e-06
7.2557696e-06
7.5047956e-06
8.495635e-06
6.142761e-06
4.932542e-06
5.2146406e-06
2.0866748e-06
1.010249e-06
1.0407724e-06
1.748322e-06
8.355185e-07
9.088543e-07
2.0019386e-06
2.9317628e-06
3.084402e-06
2.1729707e-06
2.0360337e-06
1.584074e-06
3.6202104e-07
1.3577997e-07
2.2625215e-07
1.0817657e-06
5.848325e-07
4.9629796e-07
7.235234e-07
9.5005424e-07
1.2206832e-06
1.4290277e-06
2.0175785e-06
2.2712356e-06
5.302851e-06
6.483811e-06
5.929475e-06
3.2548128e-06
3.4861241e-06
4.115001e-06
4.312179e-06
3.7985058e-06
3.3711046e-06
1.402996e-06
1.7438595e-06
2.7541168e-06
6.539668e-06
7.659494e-06
7.515377e-06
2.3217249e-06
2.4448686e-06
4.4309886e-06
5.4354978e-06
3.7854552e-06
4.826236e-06
2.7047518e-06
5.183299e-06
2.7640517e-06
2.8800193e-06
2.9005275e-06
5.5302808e-06
1.1374441e-05
1.3055683e-05
1.1646883e-05
7.761301e-06
7.6200813e-06
5.3962985e-06
1.0458274e-05
1.16669635e-05
1.118678e-05
1.271634e-05
1.3001875e-05
1.4025707e-05
1.4571785e-05
1.5326701e-05
1.544506e-05
1.4226871e-05
1.3078217e-05
1.3549246e-05
1.3644873e-05
1.307226e-05
1.2236792e-05
6.9921934e-06
4.8729676e-06
6.6986827e-06
1.078974e-05
9.805442e-06
9.6303975e-06
9.684927e-06
1.021236e-05
1.1121184e-05
2.2545517e-05
2.2298986e-05
2.2434751e-05
2.1646872e-05
2.122581e-05
2.1410431e-05
2.0560788e-05
1.964177e-05
2.046038e-05
2.159973e-05
2.2005936e-05
2.177969e-05
1.5820251e-05
1.5745014e-05
1.4176502e-05
8.055136e-06
5.595087e-06
8.019419e-06
1.5205195e-05
1.4912958e-05
1.3631202e-05
1.2185635e-05
1.22816455e-05
1.39979375e-05
1.944532e-05
1.9230967e-05
1.8666346e-05
1.5709635e-05
1.4501288e-05
1.552399e-05
1.7724282e-05
1.693041e-05
1.7002112e-05
1.7252947e-05
1.8112723e-05
1.7586965e-05
1.7054432e-05
1.8056136e-05
1.7471348e-05
1.8307719e-05
1.8458311e-05
1.9385956e-05
2.011579e-05
2.049427e-05
2.0606603e-05
1.9744544e-05
1.8864235e-05
1.9360501e-05
-2.2545819e-05
-2.243504e-05
-2.2299302e-05
-2.056113e-05
-1.9642108e-05
-2.0460711e-05
-2.1647089e-05
-2.1226013e-05
-2.1410659e-05
-2.160002e-05
-2.178001e-05
-2.2006208e-05
-1.944549e-05
-1.9231138e-05
-1.8666497e-05
-1.5709738e-05
-1.4501374e-05
-1.55241e-05
-1.7724456e-05
-1.6930586e-05
-1.7002258e-05
-1.725309e-05
-1.75871e-05
-1.8112878e-05
-1.5820566e-05
-1.5745329e-05
-1.4176808e-05
-8.055314e-06
-5.595205e-06
-8.019591e-06
-1.52055e-05
-1.4913234e-05
-1.363148e-05
-1.218592e-05
-1.2281937e-05
-1.3998245e-05
-1.7054675e-05
-1.7471628e-05
-1.8056384e-05
-2.0116011e-05
-2.0494477e-05
-2.0606843e-05
-1.8308067e-05
-1.8458653e-05
-1.9386303e-05
-1.9744852e-05
-1.8864554e-05
-1.9360778e-05
-1.4030104e-06
-1.7438745e-06
-2.7541428e-06
-6.539721e-06
-7.659559e-06
-7.5154385e-06
-2.3217456e-06
-2.4448932e-06
-4.43103e-06
-5.4355446e-06
-4.8262773e-06
-3.7854868e-06
-2.704788e-06
-5.183373e-06
-2.764093e-06
-2.880074e-06
-2.900584e-06
-5.530389e-06
-1.1374618e-05
-1.3055887e-05
-1.16470865e-05
-7.761446e-06
-5.396391e-06
-7.620207e-06
-1.0458346e-05
-1.1667046e-05
-1.1186853e-05
-1.2716416e-05
-1.300195e-05
-1.4025797e-05
-1.4571912e-05
-1.5326852e-05
-1.544519e-05
-1.4226967e-05
-1.3078304e-05
-1.3549348e-05
-1.364503e-05
-1.3072403e-05
-1.223694e-05
-6.992275e-06
-4.873023e-06
-6.6987523e-06
-1.0789829e-05
-9.805519e-06
-9.630478e-06
-9.685023e-06
-1.1121297e-05
-1.02124695e-05
-1.1032099e-05
-9.622941e-06
-8.3186105e-06
-7.1159047e-06
-6.012099e-06
-5.004939e-06
-4.092633e-06
-3.2737894e-06
-2.5473748e-06
-1.912645e-06
-1.3690817e-06
-9.163564e-07
-5.5428586e-07
-2.8277722e-07
-1.0177772e-07
-1.1278806e-08
-2.2655457e-05
-2.2581606e-05
-2.2432965e-05
-2.2208502e-05
-2.1906531e-05
-2.1524831e-05
-2.1060638e-05
-2.0510712e-05
-1.9871368e-05
-1.9138506e-05
-1.8307708e-05
-1.7374385e-05
-1.6333728e-05
-1.5180891e-05
-1.39110925e-05
-1.2519748e-05
1.1032052e-05
9.622906e-06
8.318592e-06
7.1159084e-06
6.012122e-06
5.00498e-06
4.092688e-06
3.2738537e-06
2.547437e-06
1.912707e-06
1.3691431e-06
9.164211e-07
5.543529e-07
2.8284518e-07
1.01845245e-07
1.134598e-08
-3.5296986e-07
-1.3908859e-06
-2.545446e-06
-3.7150758e-06
-4.855344e-06
-5.9409354e-06
-6.9556017e-06
-7.888199e-06
-8.730758e-06
-9.477427e-06
-1.0123842e-05
-1.06667285e-05
-1.110363e-05
-1.1432777e-05
-1.1652906e-05
-1.1763241e-05
3.5295923e-07
1.3908638e-06
2.5454153e-06
3.7150367e-06
4.8552997e-06
5.9408853e-06
6.9555485e-06
7.888143e-06
8.730698e-06
9.4773695e-06
1.0123782e-05
1.0666663e-05
1.1103565e-05
1.1432714e-05
1.1652849e-05
1.1763184e-05
-1.4876935e-06
-4.2882975e-06
-6.862505e-06
-9.218115e-06
-1.1362624e-05
-1.33030935e-05
-1.5046144e-05
-1.6597796e-05
-1.796351e-05
-1.9148123e-05
-2.0155854e-05
-2.0990237e-05
-2.1654232e-05
-2.2150181e-05
-2.247981e-05
-2.2644139e-05
0.0
0.0
0.0
0.0
0.0
0.0
0.0
0.0
0.0
0.0
0.0
0.0
0.0
0.0
0.0
0.0
2.2655153e-05
2.2581313e-05
2.24327e-05
2.2208249e-05
2.1906319e-05
2.1524631e-05
2.106045e-05
2.0510535e-05
1.9871199e-05
1.9138342e-05
1.8307564e-05
1.7374256e-05
1.6333615e-05
1.5180797e-05
1.39110125e-05
1.2519687e-05
0.0
0.0
0.0
0.0
0.0
0.0
0.0
0.0
0.0
0.0
0.0
0.0
0.0
0.0
0.0
0.0
1.4876648e-06
4.2882107e-06
6.8623585e-06
9.217908e-06
1.1362358e-05
1.3302804e-05
1.5045834e-05
1.6597476e-05
1.7963186e-05
1.914779e-05
2.0155507e-05
2.0989892e-05
2.1653887e-05
2.2149854e-05
2.2479497e-05
2.2643835e-05
3.358392e-11
3.3410337e-11
3.2690493e-11
3.1890858e-11
2.9832834e-11
2.5646723e-11
1.9017505e-11
1.0442488e-11
2.0605132e-12
-4.8249226e-12
-1.0121413e-11
-1.3898859e-11
-1.6066204e-11
-1.619057e-11
-1.3727935e-11
-7.508882e-12
1.2505606e-05
1.3779679e-05
1.480162e-05
1.5560856e-05
1.6046166e-05
1.6246142e-05
1.6149932e-05
1.5748212e-05
1.5034178e-05
1.4004498e-05
1.2659805e-05
1.100476e-05
9.047654e-06
6.799777e-06
4.2746155e-06
1.4871596e-06
-1.2505667e-05
-1.3779756e-05
-1.4801718e-05
-1.5560969e-05
-1.6046284e-05
-1.6246275e-05
-1.6150094e-05
-1.57484e-05
-1.5034398e-05
-1.4004736e-05
-1.2660045e-05
-1.1004988e-05
-9.047848e-06
-6.799917e-06
-4.2747038e-06
-1.4871888e-06
-8.04573e-06
-7.4474974e-06
-6.801815e-06
-6.1233904e-06
-5.423179e-06
-4.70928e-06
-3.9875904e-06
-3.2622404e-06
-3.4642224e-07
-9.753845e-07
-1.5178056e-06
-1.972204e-06
-2.3373016e-06
-2.6120467e-06
-2.795649e-06
-2.887583e-06
-3.6744356e-07
-1.1645539e-06
-2.0433001e-06
-3.002394e-06
-4.041135e-06
-5.1598004e-06
-6.3600314e-06
-7.645168e-06
3.2623063e-06
3.9876536e-06
4.7093317e-06
5.4232146e-06
6.123394e-06
6.8017935e-06
7.447456e-06
8.04568e-06
3.6745166e-07
1.1645537e-06
2.043292e-06
3.0023768e-06
4.04111e-06
5.15977e-06
6.3599896e-06
7.645115e-06
3.4643867e-07
9.75409e-07
1.517838e-06
1.9722393e-06
2.337341e-06
2.6120965e-06
2.795708e-06
2.8876468e-06
8.546979e-06
8.74665e-06
8.582386e-06
8.017578e-06
7.019064e-06
5.567679e-06
3.6639913e-06
1.3249356e-06
1.4804753e-05
1.3429898e-05
1.1886041e-05
1.0166512e-05
8.263193e-06
6.1663777e-06
3.8647295e-06
1.3454935e-06
1.5172168e-05
1.4594353e-05
1.3929184e-05
1.3168716e-05
1.2304147e-05
1.1326024e-05
1.0224645e-05
8.990583e-06
2.0491903e-05
2.0888527e-05
2.1036409e-05
2.0930822e-05
2.0569114e-05
1.9950936e-05
1.9078389e-05
1.7956005e-05
1.566959e-05
1.6092641e-05
1.6446413e-05
1.6735126e-05
1.6962176e-05
1.7130227e-05
1.7241195e-05
1.7296372e-05
1.6015996e-05
1.7067981e-05
1.7964167e-05
1.8707271e-05
1.9299414e-05
1.9742209e-05
2.003679e-05
2.0183908e-05
-1.7956336e-05
-1.9078721e-05
-1.9951272e-05
-2.0569427e-05
-2.0931097e-05
-2.1036642e-05
-2.0888729e-05
-2.0492078e-05
-1.6016204e-05
-1.7068196e-05
-1.7964376e-05
-1.870748e-05
-1.929962e-05
-1.97424e-05
-2.0036978e-05
-2.0184081e-05
-1.5669817e-05
-1.6092901e-05
-1.644671e-05
-1.6735443e-05
-1.6962507e-05
-1.7130556e-05
-1.7241528e-05
-1.7296696e-05
-8.54704e-06
-8.746716e-06
-8.582455e-06
-8.017648e-06
-7.0191295e-06
-5.567732e-06
-3.66403e-06
-1.3249509e-06
-1.4804949e-05
-1.3430087e-05
-1.1886201e-05
-1.0166648e-05
-8.2633e-06
-6.1664546e-06
-3.864778e-06
-1.3455093e-06
-1.5172352e-05
-1.459451e-05
-1.3929321e-05
-1.3168833e-05
-1.230425e-05
-1.1326109e-05
-1.0224718e-05
-8.990648e-06
-7.103553e-06
-8.204479e-06
-9.296414e-06
-1.0370982e-05
-6.330299e-06
-7.5114694e-06
-8.790181e-06
-1.0169738e-05
-5.9564913e-06
-6.2473355e-06
-6.442017e-06
-6.539587e-06
-1.9874722e-06
-1.6280864e-06
-1.2669185e-06
-9.0502556e-07
-1.6954203e-07
-4.4100886e-07
-6.2209716e-07
-7.126731e-07
-1.920717e-07
-6.437716e-07
-1.1853299e-06
-1.8166556e-06
-3.6590425e-06
-3.92572e-06
-4.1395137e-06
-4.2707816e-06
-5.046103e-07
-1.5446424e-06
-2.6190698e-06
-3.7246803e-06
-4.9270767e-07
-1.4374783e-06
-2.3204595e-06
-3.133595e-06
-3.35758e-06
-3.0329888e-06
-2.6931084e-06
-2.3433472e-06
-5.2440464e-06
-4.2507404e-06
-3.348967e-06
-2.537789e-06
-5.570953e-06
-5.092782e-06
-4.52469e-06
-3.870161e-06
1.03709235e-05
9.296378e-06
8.2044635e-06
7.1035574e-06
5.956512e-06
6.247356e-06
6.4420346e-06
6.5396016e-06
6.330306e-06
7.5114544e-06
8.790143e-06
1.0169679e-05
3.6590175e-06
3.925687e-06
4.139474e-06
4.27074e-06
5.0457874e-07
1.5446088e-06
2.6190332e-06
3.7246396e-06
4.926786e-07
1.4374514e-06
2.3204352e-06
3.1335737e-06
1.9875167e-06
1.6281437e-06
1.2669805e-06
9.050895e-07
1.6960527e-07
4.4107324e-07
6.22162e-07
7.127382e-07
1.9213293e-07
6.438294e-07
1.1853838e-06
1.8166986e-06
2.343376e-06
2.6931232e-06
3.0329877e-06
3.3575643e-06
5.5709684e-06
5.0927847e-06
4.5246807e-06
3.8701432e-06
5.244078e-06
4.2507777e-06
3.3489991e-06
2.5378204e-06
1.0691662e-06
2.74279e-06
3.7774223e-06
4.238601e-06
7.2777752e-06
6.603059e-06
5.7988923e-06
4.838148e-06
6.77319e-06
5.0584513e-06
3.179863e-06
1.1135098e-06
8.388105e-06
6.417626e-06
4.0981304e-06
1.4456086e-06
8.994455e-06
6.700036e-06
4.189699e-06
1.454637e-06
9.994452e-06
9.829394e-06
9.6254835e-06
9.379027e-06
1.2791167e-05
1.26288305e-05
1.2155356e-05
1.1387778e-05
1.532443e-05
1.4211193e-05
1.2979634e-05
1.1624243e-05
1.5565076e-05
1.4921804e-05
1.4149846e-05
1.3248957e-05
1.2624354e-05
1.2111247e-05
1.1238105e-05
9.997183e-06
7.846697e-06
8.328594e-06
8.73782e-06
9.085225e-06
8.339374e-06
9.766017e-06
1.1058187e-05
1.2218664e-05
2.1645088e-05
2.206859e-05
2.224961e-05
2.2188135e-05
2.1084279e-05
2.156651e-05
2.188709e-05
2.2047116e-05
2.0914695e-05
2.1125437e-05
2.1264921e-05
2.1334361e-05
1.6271699e-05
1.4897656e-05
1.3256491e-05
1.1358051e-05
1.0123466e-05
1.02185295e-05
1.02811255e-05
1.0312194e-05
1.1081285e-05
1.29682885e-05
1.4662542e-05
1.6170374e-05
1.8981329e-05
1.8698738e-05
1.8154658e-05
1.7357874e-05
1.6079688e-05
1.6465632e-05
1.6722925e-05
1.685157e-05
1.632507e-05
1.7218836e-05
1.8011373e-05
1.8708082e-05
1.8994739e-05
1.873301e-05
1.8192324e-05
1.7371378e-05
2.0438774e-05
1.9627776e-05
1.8648485e-05
1.7497405e-05
2.0630869e-05
2.027157e-05
1.9833808e-05
1.9314017e-05
-2.2188386e-05
-2.224989e-05
-2.2068914e-05
-2.1645434e-05
-2.0915002e-05
-2.1125757e-05
-2.1265254e-05
-2.1334707e-05
-2.1084565e-05
-2.156677e-05
-2.1887341e-05
-2.2047352e-05
-1.8981518e-05
-1.8698915e-05
-1.81548e-05
-1.7358001e-05
-1.60798e-05
-1.6465747e-05
-1.6723045e-05
-1.685169e-05
-1.6325195e-05
-1.7218978e-05
-1.801154e-05
-1.870828e-05
-1.6272024e-05
-1.4897972e-05
-1.32567875e-05
-1.1358316e-05
-1.0123693e-05
-1.0218775e-05
-1.0281367e-05
-1.0312435e-05
-1.1081528e-05
-1.29685695e-05
-1.4662855e-05
-1.6170705e-05
-1.7371705e-05
-1.8192624e-05
-1.873328e-05
-1.8994973e-05
-2.063117e-05
-2.0271857e-05
-1.9834071e-05
-1.9314248e-05
-2.0439076e-05
-1.9628107e-05
-1.8648816e-05
-1.7497738e-05
-1.0691748e-06
-2.7428116e-06
-3.7774557e-06
-4.2386428e-06
-7.277841e-06
-6.603114e-06
-5.7989423e-06
-4.838192e-06
-6.773251e-06
-5.0584954e-06
-3.1798904e-06
-1.1135188e-06
-8.388221e-06
-6.417722e-06
-4.0981954e-06
-1.4456332e-06
-8.99464e-06
-6.700166e-06
-4.189773e-06
-1.4546622e-06
-9.994654e-06
-9.829571e-06
-9.625638e-06
-9.37916e-06
-1.2791269e-05
-1.26289215e-05
-1.2155439e-05
-1.13878505e-05
-1.5324538e-05