# vtk DataFile Version 3.0
PDE solution
ASCII
DATASET UNSTRUCTURED_GRID
POINTS 21 double
-1.0 -1.0 0.0
-1.0 0.0 0.0
-1.0 1.0 0.0
0.0 -1.0 0.0
0.0 0.0 0.0
0.0 1.0 0.0
1.0 -1.0 0.0
1.0 0.0 0.0
-1.0 -0.5 0.0
-1.0 0.5 0.0
-0.5 -1.0 0.0
-0.5 0.0 0.0
0.0 -0.5 0.0
-0.5 1.0 0.0
0.0 0.5 0.0
0.5 -1.0 0.0
0.5 0.0 0.0
1.0 -0.5 0.0
-0.5 -0.5 0.0
0.5 -0.5 0.0
-0.5 0.5 0.0
CELLS 6 42
6 1 4 0 11 18 8
6 3 4 0 12 18 10
6 4 7 3 16 19 12
6 6 7 3 17 19 15
6 2 5 1 13 20 9
6 4 1 5 11 20 14
CELL_TYPES 6
22
22
22
22
22
22
POINT_DATA 21
SCALARS u(x,y) double 1
LOOKUP_TABLE default
0.0
-0.18750003
-0.37500003
0.18750003
-1.7122696e-16
0.0
0.37500006
0.0
-0.046875004
-0.328125
0.046875004
-0.140625
0.140625
-0.28125
-2.0347659e-17
0.328125
2.515349e-17
0.28125
0.0
0.25000003
-0.25