# vtk DataFile Version 3.0
PDE solution
ASCII
DATASET UNSTRUCTURED_GRID
POINTS 65 double
-1.0 -1.0 0.0
-1.0 0.0 0.0
-1.0 1.0 0.0
0.0 -1.0 0.0
0.0 0.0 0.0
0.0 1.0 0.0
1.0 -1.0 0.0
1.0 0.0 0.0
-1.0 -0.5 0.0
-1.0 0.5 0.0
-0.5 -1.0 0.0
-0.5 0.0 0.0
0.0 -0.5 0.0
-0.5 1.0 0.0
0.0 0.5 0.0
0.5 -1.0 0.0
0.5 0.0 0.0
1.0 -0.5 0.0
-0.5 -0.5 0.0
0.5 -0.5 0.0
-0.5 0.5 0.0
-1.0 -0.25 0.0
-1.0 -0.75 0.0
-1.0 0.75 0.0
-1.0 0.25 0.0
-0.25 -1.0 0.0
-0.75 -1.0 0.0
-0.25 0.0 0.0
-0.75 0.0 0.0
0.0 -0.25 0.0
0.0 -0.75 0.0
-0.25 1.0 0.0
-0.75 1.0 0.0
0.0 0.75 0.0
0.0 0.25 0.0
0.75 -1.0 0.0
0.25 -1.0 0.0
0.75 0.0 0.0
0.25 0.0 0.0
1.0 -0.25 0.0
1.0 -0.75 0.0
-0.75 -0.75 0.0
-0.25 -0.25 0.0
0.25 -0.75 0.0
0.75 -0.25 0.0
-0.75 0.25 0.0
-0.25 0.75 0.0
-0.75 -0.25 0.0
-0.75 -0.5 0.0
-0.5 -0.25 0.0
-0.25 -0.75 0.0
-0.5 -0.75 0.0
-0.25 -0.5 0.0
0.25 -0.25 0.0
0.5 -0.25 0.0
0.25 -0.5 0.0
0.75 -0.75 0.0
0.75 -0.5 0.0
0.5 -0.75 0.0
-0.75 0.75 0.0
-0.75 0.5 0.0
-0.5 0.75 0.0
-0.25 0.25 0.0
-0.5 0.25 0.0
-0.25 0.5 0.0
CELLS 96 384
3 1 21 28
3 28 11 47
3 21 8 47
3 47 21 28
3 8 48 22
3 22 0 41
3 48 18 41
3 41 48 22
3 11 49 27
3 27 4 42
3 49 18 42
3 42 27 49
3 18 48 49
3 49 11 47
3 48 8 47
3 47 49 48
3 3 25 30
3 30 12 50
3 25 10 50
3 50 30 25
3 10 51 26
3 26 0 41
3 51 18 41
3 41 51 26
3 12 52 29
3 29 4 42
3 52 18 42
3 42 29 52
3 18 52 51
3 51 10 50
3 52 12 50
3 50 52 51
3 4 38 29
3 29 12 53
3 38 16 53
3 53 38 29
3 16 54 37
3 37 7 44
3 54 19 44
3 44 54 37
3 12 55 30
3 30 3 43
3 55 19 43
3 43 30 55
3 19 54 55
3 55 12 53
3 54 16 53
3 53 55 54
3 6 40 35
3 35 15 56
3 40 17 56
3 56 40 35
3 17 57 39
3 39 7 44
3 57 19 44
3 44 39 57
3 15 58 36
3 36 3 43
3 58 19 43
3 43 36 58
3 19 57 58
3 58 15 56
3 57 17 56
3 56 57 58
3 2 23 32
3 32 13 59
3 23 9 59
3 59 32 23
3 9 60 24
3 24 1 45
3 60 20 45
3 45 60 24
3 13 61 31
3 31 5 46
3 61 20 46
3 46 61 31
3 20 61 60
3 60 9 59
3 61 13 59
3 59 60 61
3 4 27 34
3 34 14 62
3 27 11 62
3 62 34 27
3 11 63 28
3 28 1 45
3 63 20 45
3 45 28 63
3 14 64 33
3 33 5 46
3 64 20 46
3 46 33 64
3 20 63 64
3 64 14 62
3 63 11 62
3 62 63 64
CELL_TYPES 96
5
5
5
5
5
5
5
5
5
5
5
5
5
5
5
5
5
5
5
5
5
5
5
5
5
5
5
5
5
5
5
5
5
5
5
5
5
5
5
5
5
5
5
5
5
5
5
5
5
5
5
5
5
5
5
5
5
5
5
5
5
5
5
5
5
5
5
5
5
5
5
5
5
5
5
5
5
5
5
5
5
5
5
5
5
5
5
5
5
5
5
5
5
5
5
5
POINT_DATA 65
SCALARS u(x,y) double 1
LOOKUP_TABLE default
-2.7647155398380363e-18
-0.01233482193564938
-0.022523161044853218
0.012334821935649377
0.0
0.0
0.02252316104485322
0.0
-0.0030332190975963357
-0.020537776671127134
0.0030332190975963305
-0.00863185983490411
0.008631859834904106
-0.017504557573533197
0.0
0.02053777667112713
0.0
0.017504557573533197
-1.8431436932253575e-18
0.01568968224741145
-0.015689682247411452
-0.006849986162750423
-0.000758304774399327
-0.02225127168777455
-0.01730598373235865
0.006849986162750417
0.0007583047743993215
-0.004578224079233505
-0.011289575435190463
0.004578224079233502
0.01128957543519046
-0.010455997569611672
-0.02149296691337813
0.0
0.0
0.02225127168777455
0.017305983732358643
0.0
0.0
0.010455997569611672
0.021492966913378132
-2.6020852139652106e-18
-1.0842021724855044e-18
0.016222542928496064
0.01020659111962082
-0.016222542928496064
-0.01020659111962082
-0.0060159518088763264
-0.0022622927266177963
-0.0036619529109452407
0.006015951808876322
0.0022622927266177915
0.003661952910945238
0.00772791124919629
0.009382608770470063
0.013044561681416583
0.021018949284727487
0.017081507672740852
0.01934380039935702
-0.021018949284727487
-0.019343800399357024
-0.017081507672740852
-0.007727911249196293
-0.013044561681416588
-0.009382608770470065