# vtk DataFile Version 3.0
PDE solution
ASCII
DATASET UNSTRUCTURED_GRID
POINTS 65 double
-1.0 -1.0 0.0
-1.0 0.0 0.0
-1.0 1.0 0.0
0.0 -1.0 0.0
0.0 0.0 0.0
0.0 1.0 0.0
1.0 -1.0 0.0
1.0 0.0 0.0
-1.0 -0.5 0.0
-1.0 0.5 0.0
-0.5 -1.0 0.0
-0.5 0.0 0.0
0.0 -0.5 0.0
-0.5 1.0 0.0
0.0 0.5 0.0
0.5 -1.0 0.0
0.5 0.0 0.0
1.0 -0.5 0.0
-0.5 -0.5 0.0
0.5 -0.5 0.0
-0.5 0.5 0.0
-1.0 -0.25 0.0
-1.0 -0.75 0.0
-1.0 0.75 0.0
-1.0 0.25 0.0
-0.25 -1.0 0.0
-0.75 -1.0 0.0
-0.25 0.0 0.0
-0.75 0.0 0.0
0.0 -0.25 0.0
0.0 -0.75 0.0
-0.25 1.0 0.0
-0.75 1.0 0.0
0.0 0.75 0.0
0.0 0.25 0.0
0.75 -1.0 0.0
0.25 -1.0 0.0
0.75 0.0 0.0
0.25 0.0 0.0
1.0 -0.25 0.0
1.0 -0.75 0.0
-0.75 -0.75 0.0
-0.25 -0.25 0.0
0.25 -0.75 0.0
0.75 -0.25 0.0
-0.75 0.25 0.0
-0.25 0.75 0.0
-0.75 -0.25 0.0
-0.75 -0.5 0.0
-0.5 -0.25 0.0
-0.25 -0.75 0.0
-0.5 -0.75 0.0
-0.25 -0.5 0.0
0.25 -0.25 0.0
0.5 -0.25 0.0
0.25 -0.5 0.0
0.75 -0.75 0.0
0.5 -0.75 0.0
0.75 -0.5 0.0
-0.75 0.75 0.0
-0.5 0.75 0.0
-0.75 0.5 0.0
-0.25 0.25 0.0
-0.25 0.5 0.0
-0.5 0.25 0.0
CELLS 96 384
3 1 21 28
3 28 11 47
3 21 8 47
3 47 28 21
3 8 48 22
3 22 0 41
3 48 18 41
3 41 22 48
3 11 49 27
3 27 4 42
3 49 18 42
3 42 49 27
3 18 48 49
3 49 11 47
3 48 8 47
3 47 48 49
3 3 25 30
3 30 12 50
3 25 10 50
3 50 30 25
3 10 51 26
3 26 0 41
3 51 18 41
3 41 51 26
3 12 52 29
3 29 4 42
3 52 18 42
3 42 29 52
3 18 52 51
3 51 10 50
3 52 12 50
3 50 51 52
3 4 38 29
3 29 12 53
3 38 16 53
3 53 38 29
3 16 54 37
3 37 7 44
3 54 19 44
3 44 37 54
3 12 55 30
3 30 3 43
3 55 19 43
3 43 55 30
3 19 55 54
3 54 16 53
3 55 12 53
3 53 55 54
3 6 35 40
3 40 17 56
3 35 15 56
3 56 40 35
3 15 57 36
3 36 3 43
3 57 19 43
3 43 57 36
3 17 58 39
3 39 7 44
3 58 19 44
3 44 39 58
3 19 57 58
3 58 17 56
3 57 15 56
3 56 58 57
3 2 32 23
3 23 9 59
3 32 13 59
3 59 23 32
3 13 60 31
3 31 5 46
3 60 20 46
3 46 60 31
3 9 61 24
3 24 1 45
3 61 20 45
3 45 61 24
3 20 60 61
3 61 9 59
3 60 13 59
3 59 61 60
3 4 34 27
3 27 11 62
3 34 14 62
3 62 34 27
3 14 63 33
3 33 5 46
3 63 20 46
3 46 63 33
3 11 64 28
3 28 1 45
3 64 20 45
3 45 28 64
3 20 64 63
3 63 14 62
3 64 11 62
3 62 63 64
CELL_TYPES 96
5
5
5
5
5
5
5
5
5
5
5
5
5
5
5
5
5
5
5
5
5
5
5
5
5
5
5
5
5
5
5
5
5
5
5
5
5
5
5
5
5
5
5
5
5
5
5
5
5
5
5
5
5
5
5
5
5
5
5
5
5
5
5
5
5
5
5
5
5
5
5
5
5
5
5
5
5
5
5
5
5
5
5
5
5
5
5
5
5
5
5
5
5
5
5
5
POINT_DATA 65
SCALARS u(x,y) double 1
LOOKUP_TABLE default
4.8140673704139225e-18
-0.012334821935643493
-0.022523161044835267
0.012334821935643505
0.0
0.0
0.02252316104483528
0.0
-0.0030332190975940762
-0.020537776671115816
0.0030332190975940853
-0.008631859834900422
0.008631859834900429
-0.01750455757351544
0.0
0.020537776671115834
0.0
0.01750455757351545
4.185548281589955e-18
0.01568968224740139
-0.01568968224740138
-0.006849986162746848
-0.0007583047743979548
-0.02225127168775855
-0.017305983732351357
0.006849986162746857
0.0007583047743979643
-0.004578224079228955
-0.011289575435185427
0.004578224079228958
0.011289575435185438
-0.01045599756959562
-0.02149296691335936
0.0
0.0
0.02225127168775857
0.017305983732351374
0.0
0.0
0.010455997569595627
0.021492966913359373
4.651596156447229e-18
2.9167678073949746e-18
0.016222542928489802
0.010206591119608156
-0.016222542928489788
-0.010206591119608149
-0.006015951808874022
-0.0022622927266173465
-0.0036619529109445386
0.0060159518088740305
0.0022622927266173556
0.003661952910944545
0.007727911249189571
0.009382608770462764
0.013044561681411134
0.021018949284711267
0.019343800399346113
0.0170815076727237
-0.021018949284711253
-0.01708150767272369
-0.0193438003993461
-0.007727911249189566
-0.009382608770462758
-0.013044561681411125