# vtk DataFile Version 3.0
PDE solution
ASCII
DATASET UNSTRUCTURED_GRID
POINTS 65 double
-1.0 -1.0 0.0
-1.0 0.0 0.0
-1.0 1.0 0.0
0.0 -1.0 0.0
0.0 0.0 0.0
0.0 1.0 0.0
1.0 -1.0 0.0
1.0 0.0 0.0
-1.0 -0.5 0.0
-1.0 0.5 0.0
-0.5 -1.0 0.0
-0.5 0.0 0.0
0.0 -0.5 0.0
-0.5 1.0 0.0
0.0 0.5 0.0
0.5 -1.0 0.0
0.5 0.0 0.0
1.0 -0.5 0.0
-0.5 -0.5 0.0
0.5 -0.5 0.0
-0.5 0.5 0.0
-1.0 -0.25 0.0
-1.0 -0.75 0.0
-1.0 0.75 0.0
-1.0 0.25 0.0
-0.25 -1.0 0.0
-0.75 -1.0 0.0
-0.25 0.0 0.0
-0.75 0.0 0.0
0.0 -0.25 0.0
0.0 -0.75 0.0
-0.25 1.0 0.0
-0.75 1.0 0.0
0.0 0.75 0.0
0.0 0.25 0.0
0.75 -1.0 0.0
0.25 -1.0 0.0
0.75 0.0 0.0
0.25 0.0 0.0
1.0 -0.25 0.0
1.0 -0.75 0.0
-0.75 -0.75 0.0
-0.25 -0.25 0.0
0.25 -0.75 0.0
0.75 -0.25 0.0
-0.75 0.25 0.0
-0.25 0.75 0.0
-0.75 -0.25 0.0
-0.5 -0.25 0.0
-0.75 -0.5 0.0
-0.25 -0.75 0.0
-0.5 -0.75 0.0
-0.25 -0.5 0.0
0.25 -0.25 0.0
0.25 -0.5 0.0
0.5 -0.25 0.0
0.75 -0.75 0.0
0.5 -0.75 0.0
0.75 -0.5 0.0
-0.75 0.75 0.0
-0.5 0.75 0.0
-0.75 0.5 0.0
-0.25 0.25 0.0
-0.5 0.25 0.0
-0.25 0.5 0.0
CELLS 96 384
3 1 28 21
3 21 8 47
3 28 11 47
3 47 21 28
3 11 48 27
3 27 4 42
3 48 18 42
3 42 27 48
3 8 49 22
3 22 0 41
3 49 18 41
3 41 22 49
3 18 49 48
3 48 11 47
3 49 8 47
3 47 48 49
3 3 25 30
3 30 12 50
3 25 10 50
3 50 25 30
3 10 51 26
3 26 0 41
3 51 18 41
3 41 51 26
3 12 52 29
3 29 4 42
3 52 18 42
3 42 52 29
3 18 51 52
3 52 12 50
3 51 10 50
3 50 52 51
3 4 29 38
3 38 16 53
3 29 12 53
3 53 29 38
3 12 54 30
3 30 3 43
3 54 19 43
3 43 54 30
3 16 55 37
3 37 7 44
3 55 19 44
3 44 37 55
3 19 55 54
3 54 12 53
3 55 16 53
3 53 55 54
3 6 35 40
3 40 17 56
3 35 15 56
3 56 35 40
3 15 57 36
3 36 3 43
3 57 19 43
3 43 36 57
3 17 58 39
3 39 7 44
3 58 19 44
3 44 58 39
3 19 58 57
3 57 15 56
3 58 17 56
3 56 58 57
3 2 32 23
3 23 9 59
3 32 13 59
3 59 23 32
3 13 60 31
3 31 5 46
3 60 20 46
3 46 31 60
3 9 61 24
3 24 1 45
3 61 20 45
3 45 61 24
3 20 61 60
3 60 13 59
3 61 9 59
3 59 60 61
3 4 27 34
3 34 14 62
3 27 11 62
3 62 34 27
3 11 63 28
3 28 1 45
3 63 20 45
3 45 63 28
3 14 64 33
3 33 5 46
3 64 20 46
3 46 64 33
3 20 64 63
3 63 11 62
3 64 14 62
3 62 63 64
CELL_TYPES 96
5
5
5
5
5
5
5
5
5
5
5
5
5
5
5
5
5
5
5
5
5
5
5
5
5
5
5
5
5
5
5
5
5
5
5
5
5
5
5
5
5
5
5
5
5
5
5
5
5
5
5
5
5
5
5
5
5
5
5
5
5
5
5
5
5
5
5
5
5
5
5
5
5
5
5
5
5
5
5
5
5
5
5
5
5
5
5
5
5
5
5
5
5
5
5
5
POINT_DATA 65
SCALARS u(x,y) double 1
LOOKUP_TABLE default
6.78478708005697e-18
-0.012334821935643489
-0.022523161044835264
0.012334821935643503
0.0
0.0
0.022523161044835278
0.0
-0.003033219097594073
-0.020537776671115816
0.0030332190975940867
-0.00863185983490042
0.00863185983490043
-0.017504557573515437
0.0
0.02053777667111583
0.0
0.017504557573515447
5.75786148906568e-18
0.015689682247401388
-0.01568968224740138
-0.006849986162746845
-0.0007583047743979526
-0.02225127168775855
-0.017305983732351357
0.006849986162746858
0.000758304774397966
-0.004578224079228954
-0.011289575435185426
0.004578224079228959
0.011289575435185438
-0.01045599756959562
-0.02149296691335936
0.0
0.0
0.022251271687758565
0.01730598373235137
0.0
0.0
0.010455997569595624
0.02149296691335937
6.4447966557192676e-18
3.963132936405404e-18
0.0162225429284898
0.010206591119608152
-0.016222542928489785
-0.010206591119608147
-0.006015951808874019
-0.0036619529109445364
-0.002262292726617345
0.006015951808874032
0.0022622927266173574
0.003661952910944547
0.0077279112491895705
0.013044561681411134
0.009382608770462762
0.021018949284711264
0.01934380039934611
0.017081507672723692
-0.021018949284711253
-0.01708150767272369
-0.0193438003993461
-0.007727911249189565
-0.013044561681411125
-0.009382608770462758