# vtk DataFile Version 3.0
PDE solution
ASCII
DATASET UNSTRUCTURED_GRID
POINTS 833 double
-1.0 -1.0 0.0
-1.0 0.0 0.0
-1.0 1.0 0.0
0.0 -1.0 0.0
0.0 0.0 0.0
0.0 1.0 0.0
1.0 -1.0 0.0
1.0 0.0 0.0
-1.0 -0.5 0.0
-1.0 0.5 0.0
-0.5 -1.0 0.0
-0.5 0.0 0.0
0.0 -0.5 0.0
-0.5 1.0 0.0
0.0 0.5 0.0
0.5 -1.0 0.0
0.5 0.0 0.0
1.0 -0.5 0.0
-0.5 -0.5 0.0
0.5 -0.5 0.0
-0.5 0.5 0.0
-1.0 -0.25 0.0
-1.0 -0.75 0.0
-1.0 0.75 0.0
-1.0 0.25 0.0
-0.25 -1.0 0.0
-0.75 -1.0 0.0
-0.25 0.0 0.0
-0.75 0.0 0.0
0.0 -0.25 0.0
0.0 -0.75 0.0
-0.25 1.0 0.0
-0.75 1.0 0.0
0.0 0.75 0.0
0.0 0.25 0.0
0.75 -1.0 0.0
0.25 -1.0 0.0
0.75 0.0 0.0
0.25 0.0 0.0
1.0 -0.25 0.0
1.0 -0.75 0.0
-0.75 -0.75 0.0
-0.25 -0.25 0.0
0.25 -0.75 0.0
0.75 -0.25 0.0
-0.75 0.25 0.0
-0.25 0.75 0.0
-0.75 -0.25 0.0
-0.75 -0.5 0.0
-0.5 -0.25 0.0
-0.25 -0.75 0.0
-0.25 -0.5 0.0
-0.5 -0.75 0.0
0.25 -0.25 0.0
0.5 -0.25 0.0
0.25 -0.5 0.0
0.75 -0.75 0.0
0.75 -0.5 0.0
0.5 -0.75 0.0
-0.75 0.75 0.0
-0.5 0.75 0.0
-0.75 0.5 0.0
-0.25 0.25 0.0
-0.5 0.25 0.0
-0.25 0.5 0.0
-1.0 -0.125 0.0
-1.0 -0.375 0.0
-1.0 -0.625 0.0
-1.0 -0.875 0.0
-1.0 0.875 0.0
-1.0 0.625 0.0
-1.0 0.375 0.0
-1.0 0.125 0.0
-0.125 -1.0 0.0
-0.375 -1.0 0.0
-0.625 -1.0 0.0
-0.875 -1.0 0.0
-0.125 0.0 0.0
-0.375 0.0 0.0
-0.625 0.0 0.0
-0.875 0.0 0.0
0.0 -0.125 0.0
0.0 -0.375 0.0
0.0 -0.625 0.0
0.0 -0.875 0.0
-0.125 1.0 0.0
-0.375 1.0 0.0
-0.625 1.0 0.0
-0.875 1.0 0.0
0.0 0.875 0.0
0.0 0.625 0.0
0.0 0.375 0.0
0.0 0.125 0.0
0.875 -1.0 0.0
0.625 -1.0 0.0
0.375 -1.0 0.0
0.125 -1.0 0.0
0.875 0.0 0.0
0.625 0.0 0.0
0.375 0.0 0.0
0.125 0.0 0.0
1.0 -0.125 0.0
1.0 -0.375 0.0
1.0 -0.625 0.0
1.0 -0.875 0.0
-0.875 -0.875 0.0
-0.625 -0.625 0.0
-0.375 -0.375 0.0
-0.125 -0.125 0.0
0.125 -0.875 0.0
0.375 -0.625 0.0
0.625 -0.375 0.0
0.875 -0.125 0.0
-0.875 0.125 0.0
-0.625 0.375 0.0
-0.375 0.625 0.0
-0.125 0.875 0.0
-0.625 -0.125 0.0
-0.875 -0.375 0.0
-0.625 -0.5 0.0
-0.875 -0.5 0.0
-0.5 -0.375 0.0
-0.5 -0.125 0.0
-0.375 -0.875 0.0
-0.125 -0.625 0.0
-0.375 -0.5 0.0
-0.125 -0.5 0.0
-0.5 -0.625 0.0
-0.5 -0.875 0.0
0.125 -0.375 0.0
0.375 -0.125 0.0
0.5 -0.375 0.0
0.5 -0.125 0.0
0.375 -0.5 0.0
0.125 -0.5 0.0
0.625 -0.875 0.0
0.875 -0.625 0.0
0.625 -0.5 0.0
0.875 -0.5 0.0
0.5 -0.625 0.0
0.5 -0.875 0.0
-0.875 0.625 0.0
-0.625 0.875 0.0
-0.5 0.625 0.0
-0.5 0.875 0.0
-0.625 0.5 0.0
-0.875 0.5 0.0
-0.125 0.375 0.0
-0.375 0.125 0.0
-0.5 0.375 0.0
-0.5 0.125 0.0
-0.375 0.5 0.0
-0.125 0.5 0.0
-0.875 -0.125 0.0
-0.75 -0.125 0.0
-0.875 -0.25 0.0
-0.875 -0.625 0.0
-0.875 -0.75 0.0
-0.75 -0.625 0.0
-0.375 -0.125 0.0
-0.25 -0.125 0.0
-0.375 -0.25 0.0
-0.625 -0.375 0.0
-0.625 -0.25 0.0
-0.75 -0.375 0.0
-0.125 -0.875 0.0
-0.25 -0.875 0.0
-0.125 -0.75 0.0
-0.125 -0.375 0.0
-0.125 -0.25 0.0
-0.25 -0.375 0.0
-0.625 -0.875 0.0
-0.75 -0.875 0.0
-0.625 -0.75 0.0
-0.375 -0.625 0.0
-0.25 -0.625 0.0
-0.375 -0.75 0.0
0.125 -0.125 0.0
0.125 -0.25 0.0
0.25 -0.125 0.0
0.625 -0.125 0.0
0.75 -0.125 0.0
0.625 -0.25 0.0
0.125 -0.625 0.0
0.125 -0.75 0.0
0.25 -0.625 0.0
0.375 -0.375 0.0
0.375 -0.25 0.0
0.25 -0.375 0.0
0.875 -0.875 0.0
0.75 -0.875 0.0
0.875 -0.75 0.0
0.875 -0.375 0.0
0.875 -0.25 0.0
0.75 -0.375 0.0
0.375 -0.875 0.0
0.25 -0.875 0.0
0.375 -0.75 0.0
0.625 -0.625 0.0
0.75 -0.625 0.0
0.625 -0.75 0.0
-0.875 0.875 0.0
-0.875 0.75 0.0
-0.75 0.875 0.0
-0.375 0.875 0.0
-0.25 0.875 0.0
-0.375 0.75 0.0
-0.875 0.375 0.0
-0.875 0.25 0.0
-0.75 0.375 0.0
-0.625 0.625 0.0
-0.75 0.625 0.0
-0.625 0.75 0.0
-0.125 0.125 0.0
-0.125 0.25 0.0
-0.25 0.125 0.0
-0.625 0.125 0.0
-0.75 0.125 0.0
-0.625 0.25 0.0
-0.125 0.625 0.0
-0.125 0.75 0.0
-0.25 0.625 0.0
-0.375 0.375 0.0
-0.375 0.25 0.0
-0.25 0.375 0.0
-1.0 -0.0625 0.0
-1.0 -0.1875 0.0
-1.0 -0.3125 0.0
-1.0 -0.4375 0.0
-1.0 -0.5625 0.0
-1.0 -0.6875 0.0
-1.0 -0.8125 0.0
-1.0 -0.9375 0.0
-1.0 0.9375 0.0
-1.0 0.8125 0.0
-1.0 0.6875 0.0
-1.0 0.5625 0.0
-1.0 0.4375 0.0
-1.0 0.3125 0.0
-1.0 0.1875 0.0
-1.0 0.0625 0.0
-0.0625 -1.0 0.0
-0.1875 -1.0 0.0
-0.3125 -1.0 0.0
-0.4375 -1.0 0.0
-0.5625 -1.0 0.0
-0.6875 -1.0 0.0
-0.8125 -1.0 0.0
-0.9375 -1.0 0.0
-0.0625 0.0 0.0
-0.1875 0.0 0.0
-0.3125 0.0 0.0
-0.4375 0.0 0.0
-0.5625 0.0 0.0
-0.6875 0.0 0.0
-0.8125 0.0 0.0
-0.9375 0.0 0.0
0.0 -0.0625 0.0
0.0 -0.1875 0.0
0.0 -0.3125 0.0
0.0 -0.4375 0.0
0.0 -0.5625 0.0
0.0 -0.6875 0.0
0.0 -0.8125 0.0
0.0 -0.9375 0.0
-0.0625 1.0 0.0
-0.1875 1.0 0.0
-0.3125 1.0 0.0
-0.4375 1.0 0.0
-0.5625 1.0 0.0
-0.6875 1.0 0.0
-0.8125 1.0 0.0
-0.9375 1.0 0.0
0.0 0.9375 0.0
0.0 0.8125 0.0
0.0 0.6875 0.0
0.0 0.5625 0.0
0.0 0.4375 0.0
0.0 0.3125 0.0
0.0 0.1875 0.0
0.0 0.0625 0.0
0.9375 -1.0 0.0
0.8125 -1.0 0.0
0.6875 -1.0 0.0
0.5625 -1.0 0.0
0.4375 -1.0 0.0
0.3125 -1.0 0.0
0.1875 -1.0 0.0
0.0625 -1.0 0.0
0.9375 0.0 0.0
0.8125 0.0 0.0
0.6875 0.0 0.0
0.5625 0.0 0.0
0.4375 0.0 0.0
0.3125 0.0 0.0
0.1875 0.0 0.0
0.0625 0.0 0.0
1.0 -0.0625 0.0
1.0 -0.1875 0.0
1.0 -0.3125 0.0
1.0 -0.4375 0.0
1.0 -0.5625 0.0
1.0 -0.6875 0.0
1.0 -0.8125 0.0
1.0 -0.9375 0.0
-0.9375 -0.9375 0.0
-0.8125 -0.8125 0.0
-0.6875 -0.6875 0.0
-0.5625 -0.5625 0.0
-0.4375 -0.4375 0.0
-0.3125 -0.3125 0.0
-0.1875 -0.1875 0.0
-0.0625 -0.0625 0.0
0.0625 -0.9375 0.0
0.1875 -0.8125 0.0
0.3125 -0.6875 0.0
0.4375 -0.5625 0.0
0.5625 -0.4375 0.0
0.6875 -0.3125 0.0
0.8125 -0.1875 0.0
0.9375 -0.0625 0.0
-0.9375 0.0625 0.0
-0.8125 0.1875 0.0
-0.6875 0.3125 0.0
-0.5625 0.4375 0.0
-0.4375 0.5625 0.0
-0.3125 0.6875 0.0
-0.1875 0.8125 0.0
-0.0625 0.9375 0.0
-0.5625 -0.0625 0.0
-0.6875 -0.1875 0.0
-0.8125 -0.3125 0.0
-0.9375 -0.4375 0.0
-0.5625 -0.5 0.0
-0.6875 -0.5 0.0
-0.8125 -0.5 0.0
-0.9375 -0.5 0.0
-0.5 -0.4375 0.0
-0.5 -0.3125 0.0
-0.5 -0.1875 0.0
-0.5 -0.0625 0.0
-0.4375 -0.9375 0.0
-0.3125 -0.8125 0.0
-0.1875 -0.6875 0.0
-0.0625 -0.5625 0.0
-0.4375 -0.5 0.0
-0.3125 -0.5 0.0
-0.1875 -0.5 0.0
-0.0625 -0.5 0.0
-0.5 -0.5625 0.0
-0.5 -0.6875 0.0
-0.5 -0.8125 0.0
-0.5 -0.9375 0.0
0.0625 -0.4375 0.0
0.1875 -0.3125 0.0
0.3125 -0.1875 0.0
0.4375 -0.0625 0.0
0.5 -0.4375 0.0
0.5 -0.3125 0.0
0.5 -0.1875 0.0
0.5 -0.0625 0.0
0.4375 -0.5 0.0
0.3125 -0.5 0.0
0.1875 -0.5 0.0
0.0625 -0.5 0.0
0.5625 -0.9375 0.0
0.6875 -0.8125 0.0
0.8125 -0.6875 0.0
0.9375 -0.5625 0.0
0.5625 -0.5 0.0
0.6875 -0.5 0.0
0.8125 -0.5 0.0
0.9375 -0.5 0.0
0.5 -0.5625 0.0
0.5 -0.6875 0.0
0.5 -0.8125 0.0
0.5 -0.9375 0.0
-0.9375 0.5625 0.0
-0.8125 0.6875 0.0
-0.6875 0.8125 0.0
-0.5625 0.9375 0.0
-0.5 0.5625 0.0
-0.5 0.6875 0.0
-0.5 0.8125 0.0
-0.5 0.9375 0.0
-0.5625 0.5 0.0
-0.6875 0.5 0.0
-0.8125 0.5 0.0
-0.9375 0.5 0.0
-0.0625 0.4375 0.0
-0.1875 0.3125 0.0
-0.3125 0.1875 0.0
-0.4375 0.0625 0.0
-0.5 0.4375 0.0
-0.5 0.3125 0.0
-0.5 0.1875 0.0
-0.5 0.0625 0.0
-0.4375 0.5 0.0
-0.3125 0.5 0.0
-0.1875 0.5 0.0
-0.0625 0.5 0.0
-0.9375 -0.1875 0.0
-0.8125 -0.0625 0.0
-0.75 -0.1875 0.0
-0.75 -0.0625 0.0
-0.8125 -0.25 0.0
-0.9375 -0.25 0.0
-0.8125 -0.5625 0.0
-0.9375 -0.6875 0.0
-0.8125 -0.75 0.0
-0.9375 -0.75 0.0
-0.75 -0.6875 0.0
-0.75 -0.5625 0.0
-0.4375 -0.1875 0.0
-0.3125 -0.0625 0.0
-0.25 -0.1875 0.0
-0.25 -0.0625 0.0
-0.3125 -0.25 0.0
-0.4375 -0.25 0.0
-0.6875 -0.4375 0.0
-0.5625 -0.3125 0.0
-0.6875 -0.25 0.0
-0.5625 -0.25 0.0
-0.75 -0.3125 0.0
-0.75 -0.4375 0.0
-0.0625 -0.8125 0.0
-0.1875 -0.9375 0.0
-0.25 -0.8125 0.0
-0.25 -0.9375 0.0
-0.1875 -0.75 0.0
-0.0625 -0.75 0.0
-0.1875 -0.4375 0.0
-0.0625 -0.3125 0.0
-0.1875 -0.25 0.0
-0.0625 -0.25 0.0
-0.25 -0.3125 0.0
-0.25 -0.4375 0.0
-0.5625 -0.8125 0.0
-0.6875 -0.9375 0.0
-0.75 -0.8125 0.0
-0.75 -0.9375 0.0
-0.6875 -0.75 0.0
-0.5625 -0.75 0.0
-0.4375 -0.6875 0.0
-0.3125 -0.5625 0.0
-0.25 -0.6875 0.0
-0.25 -0.5625 0.0
-0.3125 -0.75 0.0
-0.4375 -0.75 0.0
0.1875 -0.0625 0.0
0.0625 -0.1875 0.0
0.1875 -0.25 0.0
0.0625 -0.25 0.0
0.25 -0.1875 0.0
0.25 -0.0625 0.0
0.5625 -0.1875 0.0
0.6875 -0.0625 0.0
0.75 -0.1875 0.0
0.75 -0.0625 0.0
0.6875 -0.25 0.0
0.5625 -0.25 0.0
0.1875 -0.5625 0.0
0.0625 -0.6875 0.0
0.1875 -0.75 0.0
0.0625 -0.75 0.0
0.25 -0.6875 0.0
0.25 -0.5625 0.0
0.3125 -0.4375 0.0
0.4375 -0.3125 0.0
0.3125 -0.25 0.0
0.4375 -0.25 0.0
0.25 -0.3125 0.0
0.25 -0.4375 0.0
0.9375 -0.8125 0.0
0.8125 -0.9375 0.0
0.75 -0.8125 0.0
0.75 -0.9375 0.0
0.8125 -0.75 0.0
0.9375 -0.75 0.0
0.8125 -0.4375 0.0
0.9375 -0.3125 0.0
0.8125 -0.25 0.0
0.9375 -0.25 0.0
0.75 -0.3125 0.0
0.75 -0.4375 0.0
0.4375 -0.8125 0.0
0.3125 -0.9375 0.0
0.25 -0.8125 0.0
0.25 -0.9375 0.0
0.3125 -0.75 0.0
0.4375 -0.75 0.0
0.5625 -0.6875 0.0
0.6875 -0.5625 0.0
0.75 -0.6875 0.0
0.75 -0.5625 0.0
0.6875 -0.75 0.0
0.5625 -0.75 0.0
-0.8125 0.9375 0.0
-0.9375 0.8125 0.0
-0.8125 0.75 0.0
-0.9375 0.75 0.0
-0.75 0.8125 0.0
-0.75 0.9375 0.0
-0.4375 0.8125 0.0
-0.3125 0.9375 0.0
-0.25 0.8125 0.0
-0.25 0.9375 0.0
-0.3125 0.75 0.0
-0.4375 0.75 0.0
-0.8125 0.4375 0.0
-0.9375 0.3125 0.0
-0.8125 0.25 0.0
-0.9375 0.25 0.0
-0.75 0.3125 0.0
-0.75 0.4375 0.0
-0.5625 0.6875 0.0
-0.6875 0.5625 0.0
-0.75 0.6875 0.0
-0.75 0.5625 0.0
-0.6875 0.75 0.0
-0.5625 0.75 0.0
-0.1875 0.0625 0.0
-0.0625 0.1875 0.0
-0.1875 0.25 0.0
-0.0625 0.25 0.0
-0.25 0.1875 0.0
-0.25 0.0625 0.0
-0.5625 0.1875 0.0
-0.6875 0.0625 0.0
-0.75 0.1875 0.0
-0.75 0.0625 0.0
-0.6875 0.25 0.0
-0.5625 0.25 0.0
-0.1875 0.5625 0.0
-0.0625 0.6875 0.0
-0.1875 0.75 0.0
-0.0625 0.75 0.0
-0.25 0.6875 0.0
-0.25 0.5625 0.0
-0.3125 0.4375 0.0
-0.4375 0.3125 0.0
-0.3125 0.25 0.0
-0.4375 0.25 0.0
-0.25 0.3125 0.0
-0.25 0.4375 0.0
-0.9375 -0.0625 0.0
-0.9375 -0.125 0.0
-0.875 -0.0625 0.0
-0.6875 -0.0625 0.0
-0.625 -0.0625 0.0
-0.6875 -0.125 0.0
-0.9375 -0.3125 0.0
-0.9375 -0.375 0.0
-0.875 -0.3125 0.0
-0.8125 -0.1875 0.0
-0.8125 -0.125 0.0
-0.875 -0.1875 0.0
-0.9375 -0.5625 0.0
-0.875 -0.5625 0.0
-0.9375 -0.625 0.0
-0.9375 -0.8125 0.0
-0.9375 -0.875 0.0
-0.875 -0.8125 0.0
-0.6875 -0.5625 0.0
-0.625 -0.5625 0.0
-0.6875 -0.625 0.0
-0.8125 -0.6875 0.0
-0.875 -0.6875 0.0
-0.8125 -0.625 0.0
-0.4375 -0.0625 0.0
-0.4375 -0.125 0.0
-0.375 -0.0625 0.0
-0.1875 -0.0625 0.0
-0.125 -0.0625 0.0
-0.1875 -0.125 0.0
-0.4375 -0.3125 0.0
-0.4375 -0.375 0.0
-0.375 -0.3125 0.0
-0.3125 -0.1875 0.0
-0.3125 -0.125 0.0
-0.375 -0.1875 0.0
-0.5625 -0.4375 0.0
-0.625 -0.4375 0.0
-0.5625 -0.375 0.0
-0.5625 -0.1875 0.0
-0.5625 -0.125 0.0
-0.625 -0.1875 0.0
-0.8125 -0.4375 0.0
[...]
POINT_DATA 833
SCALARS u(x,y) double 1
LOOKUP_TABLE default
-7.547309590278539e-14
-0.0007553066712322383
-0.001446729092703063
0.0007553066712189068
0.0
0.0
0.001446729092910972
0.0
-0.00018577465799604091
-0.0012923442299245368
0.0001857746579886303
-0.0005328300339060383
0.0005328300339911103
-0.001106569574124937
0.0
0.001292344230182834
0.0
0.0011065695743688244
-9.31472031327909e-14
0.0009870702708685323
-0.0009870702710206352
-0.00041981960717310925
-4.639807932947286e-05
-0.0014109540438316333
-0.0010796176625473774
0.0004198196071159559
4.639807932436916e-05
-0.0002750671847793379
-0.0006979278885189771
0.0002750671848481344
0.0006979278885890048
-0.0006597980519916078
-0.0013645559644916185
0.0
0.0
0.0014109540440025519
0.001079617662786933
0.0
0.0
0.000659798052206788
0.0013645559646523026
-1.224709051344298e-13
-7.652414965994648e-14
0.0010136556564104586
0.0006436456804418366
-0.001013655656598724
-0.000643645680586196
-0.0003700099766080045
-0.00013879167734827565
-0.00022499242765486142
0.0003700099766947681
0.0002249924276011826
0.0001387916772440086
0.0004845146639979862
0.0005909011994884324
0.0008158936277633289
0.001328979913554151
0.0010780624550842497
0.0012168541315462963
-0.0013289799132016004
-0.0010780624550621692
-0.001216854131504561
-0.0004845146639260801
-0.000815893627784378
-0.000590901199574065
-0.0005740517497991179
-0.00029072299798350116
-0.00010442250606070392
-1.1598949085902135e-05
-0.0014390997668313028
-0.0013624528721409752
-0.0011988008141287432
-0.0009324298357809137
0.0005740517497559851
0.0002907229979197222
0.00010442250605931983
1.1598949061893203e-05
-0.00012659615347053145
-0.00041361900096415107
-0.0006283684537528261
-0.0007402902274143202
0.00012659615352591174
0.0004136190010444928
0.000628368453827988
0.0007402902274781411
-0.0003583780855979072
-0.0009080778153831185
-0.0012580303670068737
-0.0014275008192831114
0.0
0.0
0.0
0.0
0.0014390997670393655
0.0013624528723106266
0.0011988008143937472
0.0009324298359746731
0.0
0.0
0.0
0.0
0.000358378085766957
0.0009080778156332204
0.0012580303671621052
0.0014275008194847695
-1.32000812847595e-13
-1.2074343245239215e-13
-9.9396771114814e-14
-5.928462013758458e-14
0.0009170558937454334
0.0010387862462853258
0.0008552492775455148
0.00035632291636076056
-0.000917055893927745
-0.00103878624650058
-0.0008552492777205566
-0.00035632291648739597
-0.0004566488668823253
-0.00027867528291903665
-8.057649917226935e-05
-0.00017399411176288618
-0.00010211936807101968
-0.00036828663074679497
0.0002786752829972012
0.0004566488669876079
0.00010211936795911934
0.0003682866307494198
8.057649903418792e-05
0.00017399411168444906
0.0005576719953919027
0.0002987546680525357
0.0008110505723008924
0.0003224722382442112
0.0009131699407514642
0.0006907588687500338
0.0013427047312268387
0.001249935937601094
0.0010411636979747538
0.0010995260287421744
0.0011217401966645848
0.0012735201420386638
-0.001342704730862133
-0.0012499359372409981
-0.0010411636980327747
-0.0010995260286427453
-0.0011217401967040528
-0.001273520141923059
-0.00029875466799496206
-0.0005576719953002035
-0.0009131699408225865
-0.0006907588687286968
-0.0008110505724182714
-0.000322472238301429
-0.000560732977354682
-0.0005213087427824752
-0.000407294756660047
-9.2768793442307e-05
-3.478999064024349e-05
-5.7887016837525545e-05
-0.0002589173274173901
-0.0001332872607404145
-0.00012093668251103947
-0.00018353696896754312
-0.0003087708839607246
-0.0002427399941792945
0.0005607329773496887
0.0004072947566683344
0.0005213087428675434
0.00025891732743647946
0.0001332872607015128
0.00012093668240518051
9.276879340804233e-05
3.478999052276452e-05
5.7887016654017944e-05
0.00018353696887916503
0.0003087708839790742
0.00024273999416864848
0.00021349695452585932
0.00039804377225864337
0.0002647565116807782
0.0003390272619327942
0.00035002049863153703
0.0006224961365656128
0.0007956761288333129
0.0008713292421782036
0.0009312670208399471
0.0007497738456323316
0.0005463389802908352
0.0006672756629459334
0.0014184797088912285
0.0013905534268360878
0.0013557634365220204
0.0009024164947178117
0.0006558208176755358
0.0008851261223517741
0.0011810917781347311
0.0010631155750086545
0.0011278661178595936
0.0011831311714390704
0.0012253066068158278
0.0012831936235400967
-0.0014184797087601383
-0.0013905534265715657
-0.0013557634362634785
-0.0009024164945804119
-0.0006558208176315777
-0.0008851261224230355
-0.001181091777965266
-0.0010631155749735277
-0.0011278661179446848
-0.0011831311714273372
-0.00128319362334185
-0.0012253066066295632
-0.00021349695449475489
-0.00026475651164805427
-0.00039804377218667674
-0.0007956761287882852
-0.0008713292422325294
-0.0009312670209483932
-0.0003390272619665708
-0.00035002049869922237
-0.000622496136682266
-0.0007497738456912677
-0.0006672756629183667
-0.0005463389802999264
-0.0006611021402853676
-0.0004937088986716049
-0.00035220346985866347
-0.00023527298934153683
-0.00014217098361559926
-7.250342263305196e-05
-2.60979202130902e-05
-2.8997371887298753e-06
-0.001445635827153131
-0.0014275247776478967
-0.0013893096357062615
-0.001330202816272942
-0.0012486329237143096
-0.0011425616012603304
-0.001009669263796504
-0.0008476625804213852
0.0006611021402487234
0.0004937088986180532
0.00035220346979309477
0.00023527298928649888
0.00014217098361916342
7.250342263150148e-05
2.6097920207351227e-05
2.8997371346742312e-06
-5.600178158537363e-05
-0.0002010721061460265
-0.0003463580813759178
-0.0004759787091733027
-0.0005837344074578432
-0.0006664919182470161
-0.0007225517491946488
-0.0007511447193259464
5.600178162437246e-05
0.00020107210621453923
0.00034635808145310355
0.00047597870925903437
0.0005837344075387534
0.0006664919183195648
0.0007225517492711778
0.000751144719370282
-0.00018656043867167245
-0.0005159603632305614
-0.0007903581303068843
-0.001013359934386252
-0.001188031833542311
-0.0013168062134421648
-0.0014014268589075788
-0.0014427360902551875
0.0
0.0
0.0
0.0
0.0
0.0
0.0
0.0
0.0014456358273602253
0.0014275247778491238
0.001389309635869229
0.00133020281645922
0.0012486329239913812
0.001142561601520169
0.0010096692640305062
0.0008476625805605157
0.0
0.0
0.0
0.0
0.0
0.0
0.0
0.0
0.00018656043879301871
0.0005159603634376526
0.0007903581305499805
0.0010133599346485013
0.0011880318337128932
0.0013168062135924794
0.001401426859099765
0.001442736090458425
-1.2599496436415464e-13
-1.4149653761007518e-13
-1.2733654733213873e-13
-1.1503424257820556e-13
-1.0485685087756214e-13
-9.502773567243931e-14
-7.796891170984271e-14
-4.25072257238156e-14
0.0008438275118025222
0.00097391887907952
0.001035518799691694
0.0010228088085105487
0.0009312464586681765
0.0007592452307956506
0.0005090744463336334
0.000186302440136892
-0.0008438275119536518
-0.0009739188793011548
-0.001035518799914212
-0.0010228088087219755
-0.0009312464588473723
-0.0007592452309682642
-0.0005090744464949477
-0.00018630244023409536
-0.0004965568375881216
-0.0004141972265850874
-0.0003246874338300941
-0.000232297151384723
-4.303471203213553e-05
-0.00011252512384323758
-0.00015930118055749472
-0.0001828273262875752
-4.8420429633167686e-05
-0.00016100023963068236
-0.00029407191971926117
-0.0004477833751255841
0.0002322971514449524
0.0003246874339299657
0.00041419722668977334
0.000496556837695385
4.842042948758191e-05
0.00016100023954950164
0.00029407191968872445
0.00044778337516342
4.3034711872879236e-05
0.00011252512372375413
0.00015930118045830673
0.0001828273262342499
0.0005563764074187995
0.000534468496455264
0.0004061406722700099
0.00016291640912964337
0.0009043754386887327
0.0007067148534908192
0.0004630441122029211
0.00016841087721819616
0.000952795868353836
0.0008677150929792145
0.0007571160318204788
0.0006161942523665513
0.00132537768558553
0.0013439791756081547
0.001297616547141808
0.0011861343014663776
0.0010164081386242606
0.0010616338963950992
0.0010906437441625606
0.0011048138682993207
0.0010594428503569253
0.0011741590200296359
0.0012499449246755336
0.001287641194738958
-0.0013253776852349094
-0.0013439791752238109
-0.0012976165467582395
-0.0011861343011238881
-0.001016408138727884
-0.0010616338964111406
-0.0010906437441126756
-0.001104813868144981
-0.0010594428504461218
-0.001174159020024041
-0.0012499449246087385
-0.0012876411945684518
-0.00016291640908850608
-0.0004061406721941586
-0.0005344684963671119
-0.0005563764073227166
-0.000952795868457237
-0.0008677150930216634
-0.0007571160318250591
-0.0006161942523168651
-0.0009043754388232242
-0.0007067148535938755
-0.0004630441122797162
-0.00016841087725370327
-0.0004904821197284811
-0.0006300735001172769
-0.0004425900945206593
-0.0006063468941615291
-0.00039170915015063163
-0.00041668303004555615
-0.00011586338450310755
-6.959655233993288e-05
-2.0288155100860076e-05
-4.349548727688506e-05
-2.606241133825487e-05
-9.546448311105075e-05
-0.00024331428386692246
-0.000270337071164001
-6.540377147446203e-05
-0.00020318948214362773
-6.231612683148426e-05
-0.00017531662569387327
-0.00016141646647901107
-0.00020486605499806475
-0.00034231291422301446
-0.00026958092568597357
-0.000303427743401735
-0.00018787592139343705
0.0006300735001394069
0.0004904821196951822
0.00039170915019277734
0.0004166830300231291
0.00044259009460849164
0.0006063468942446549
0.00024331428385770037
0.00027033707121256286
6.540377138233879e-05
0.00020318948215518304
6.231612670254622e-05
0.00017531662560950315
0.0001158633844481916
6.959655232836387e-05
2.028815492715054e-05
4.34954872102022e-05
2.606241112195216e-05
9.546448295952885e-05
0.00016141646637772726
0.00020486605492159895
0.0003423129142750881
0.0002695809256717237
0.0003034277434368611
0.00018787592133973446
0.00012686286694311066
0.0002609292784115615
0.00044499008635650407
0.0003420196753693526
0.00037958631444368903
0.00013883019327226614
0.0004763349284937934
0.0001798870413375943
0.000503603836154819
0.00018234470405285456
0.0006342654414397407
0.0006081312288494364
0.000816029264171094
0.000755964487797937
0.0009461939306788374
0.0007886915986862411
0.0009765783555802455
0.0008777121545331419
0.0007941381000465665
0.0006821149927568322
0.0005179536703491476
0.0005704558137821537
0.0005802697972983316
0.0007457724391942324
0.0013991959296770608
0.001422393255314252
0.0013649596640883483
0.0014058614833700248
0.0013446715094398245
0.0013623659969281676
0.0009989011713819886
0.0007891489323708556
0.0006507928161473731
0.0006588074637941849
0.0007706618383379879
0.000987466306647177
0.0012074567192487987
0.0011382845694680504
0.0010425019660584723
0.0010754904953764037
0.0010740895818420954
0.0011753422283099322
0.001208849806833916
0.0011395339535684103
0.0012824836404028515
0.001157247083879279
0.001308546051867583
0.0012527115668727838
-0.0013991959295502517
-0.0014223932551826544
-0.0013649596637832166
-0.0014058614831424262
-0.001344671509138213
-0.0013623659967087472
-0.0009989011712865435
-0.0007891489321898125
-0.0006507928161897529
-0.0006588074636686773
-0.0007706618384485076
-0.0009874663066801862
-0.0012074567191220993
-0.0011382845692530774
-0.0010425019661251624
-0.001075490495246296
-0.0010740895819809889
-0.001175342228343115
-0.0011395339535618548
-0.0012088498068191305
-0.0013085460515950829
-0.0012527115667449506
-0.0012824836401374778
-0.0011572470837681679
-0.0002609292783654087
-0.0001268628669275688
-0.00037958631439380456
-0.00013883019325556083
-0.0004449900862842621
-0.0003420196752969667
-0.0008160292641465727
-0.0007559644877302967
-0.000946193930793729
-0.0007886915986853771
-0.0009765783557275903
-0.0008777121546050266
-0.0004763349285469545
-0.00017988704135092759
-0.0005036038362565276
-0.0001823447040894151
-0.0006342654415697523
-0.0006081312289541633
-0.0006821149928308157
-0.0007941381000910194
-0.0005802697972484632
-0.0007457724391880778
-0.0005179536703200793
-0.0005704558138278974
-0.0006575250707055664
-0.0005706979794752116
-0.0006471554439636094
-0.0005760774460347418
-0.0005394129010094568
-0.0004920580704815609
-0.0003491356358935942
-0.0002877077671534502
-0.0003399482775491412
-0.00046484443244654104
-0.0005442399134551883
-0.0004808385715435221
-0.00013924338445899138
-0.00013046741847550536
-0.00010150780920243283
-2.319732663234371e-05
-8.699068862284616e-06
-1.4496829213317273e-05
-6.931585297714238e-05
-3.747308820063747e-05
-3.1800717604736505e-05
-4.6362628663028435e-05
-6.087949090465977e-05
-7.822045582072111e-05
-0.00039345999835451026
-0.0003159945601788573
-0.00033408334926497533
-0.00013406641187163718
-6.516564141316676e-05
-6.68384182554023e-05
-0.00011202310820651117
-5.3535619056964776e-05
-5.823994778146913e-05
-0.000128327824735813
-0.0001977173707140681
-0.00018787402981476875
-9.15623494746017e-05
-0.00012927307088359585
-0.00014552118538720555
-0.0003396943356012299
-0.00041529666778063076
-0.0003798278284109027
-0.00020855554746898705
-0.00022338052335912564
-0.0002636645648202107
-0.00027627356905877157
-0.00021599174954486423
-0.00024336186933337107
0.0006575250707188336
0.0006471554439953979
0.0005706979794483015
0.00034913563585828354
0.00028770776715957437
0.00033994827759458807
0.0005760774461127329
0.0005394129010991908
0.0004920580705775154
0.0004648444324947659
0.0005442399134962117
0.0004808385715439903
0.00039345999839411903
0.0003159945601888329
0.0003340833493158349
0.0001340664118863902
6.516564138229023e-05
6.683841817501351e-05
0.00011202310810151623
5.353561890202506e-05
5.82399476281686e-05
0.00012832782466187274
0.00019771737070472715
0.00018787402977101731
0.00013924338441540093
0.00013046741841771332
0.00010150780918658897
2.3197326574404897e-05
8.699068720505704e-06
1.4496829018458834e-05
6.93158528194547e-05
3.747308801168495e-05
3.180071739095586e-05
4.6362628509736044e-05
7.822045571086411e-05
6.087949083011954e-05
9.156234935149152e-05
0.00012927307077015746
0.00014552118528699396
0.00033969433560872026
0.00041529666783388943
0.00037982782847388206
0.00020855554741838262
0.00022338052335798468
0.00026366456485582226
0.00027627356906393237
0.0002433618692984858
0.0002159917494950582
8.978157730767749e-05
0.00011135004732811155
0.000176515688642505
0.00041877967423662143
0.0004904264671121694
0.0004810556822438081
0.0001484426032022529
0.000156343118057088
0.0002833383116453887
0.00034767462042021034
0.0003088508541057577
0.000242012435968564
0.00017299607031085091
0.0003315223225669902
0.00017679229128436295
0.0001842124842493794
0.00018552415779935112
0.0003537222844648041
0.0007275338592555355
0.0008350847395002951
0.0007449458238163115
0.0004964159272961631
0.0003451523801116921
0.0004873832611706607
0.0006695529085719475
0.0007468189902311499
0.0007162051925643191
0.0008142859847599691
0.0008326796022869599
0.0008979621974111806
0.0009323999141184103
0.0009806059247670059
0.0009883076928593445
0.0009106131544183017
0.0008672110898896532
0.0008372104508798452
0.0008728756619878631
0.0008363040849841609
0.0007827684660169387
0.0004472092917122845
0.0003116528497293524
0.00042842560075895475
0.0006905235753605196
0.0006276474092643942
0.0006162996304384607
0.0006195615744582941
0.0007115019936072565
0.0006532620459719851
0.0014407278293658479
0.0014252907696664775
0.0014339898378426252
0.0013842864177644543
0.0013575201244675392
0.0013691956355744907
0.0013146898651358505
0.0012560123153235669
0.001308316144775278
0.0013810673501392717
0.0013924413042588767
0.0014069381326191673
0.0010117667781526628
0.0010069673160050339
0.0009066672026453581
0.0005152032627120892
0.0003578663737581585
0.0005129200584883037
0.0009725166871207405
0.0009538587281528639
0.0008718490269820706
0.0007793715279091273
0.0007855041408383721
0.0008952685269200551
0.0012440639301512645
0.0012303478401784484
0.0011943749706285229
0.001005685383933204
0.0009285643541532498
0.0009937586304449074
0.0011339331538277725
0.001083131798848006
0.0010878407769310777
0.0011040589625319402
0.0011589330921264122
0.0011254524190186582
0.0010908933355255265
0.0011549683251730705
0.0011174952373549025
0.001170826529645193
0.0011804203972026468
0.001239736103089697
0.0012866899143203251
0.0013108878160259835
0.0013179565589516997
0.001262772703265572
0.0012065008063491262
0.0012383015243064024
-0.0014407278291534557
-0.0014252907695007587
-0.001433989837673538
-0.0013842864175580714
-0.0013575201242026565
-0.001369195635255975
-0.0013146898649401995
-0.0012560123150682152
-0.001308316144461964
-0.0013810673498729402
-0.0013924413040644163
-0.0014069381324215958
-0.0010117667779809525
-0.001006967315889693
-0.0009066672024480859
-0.0005152032625938935
-0.0003578663737347807
-0.0005129200585336495
-0.0009725166871822808
-0.0009538587282686179
-0.0008718490271064526
-0.0007793715279253937
-0.0008952685268883063
-0.0007855041407460122
-0.001244063929965704
-0.001230347840038669
-0.0011943749704078504
-0.0010056853838021323
-0.0009285643541443331
-0.0009937586305242376
-0.0011339331538842933
-0.0010831317989740275
-0.0010878407770834103
-0.0011040589625609107
-0.001158933092085578
-0.001125452418914478
-0.0010908933355706877
-0.0011174952373788256
-0.0011549683251866698
-0.0012866899141725041
-0.0013108878157876663
-0.0013179565586671036
-0.0011708265295118621
-0.001180420396974537
-0.001239736102813531
-0.001262772703070528
-0.001238301524201397
-0.0012065008062504925
-8.978157727864935e-05
-0.00017651568859811502
-0.00011135004731392641
-0.00014844260318847943
-0.00015634311802803096
-0.0002833383116001719
-0.0004187796741617813
-0.0004904264670260348
-0.0004810556821619076
-0.00034767462036747713
-0.00024201243593710125
-0.00030885085405379714
-0.0006695529085268708
-0.0007468189901982941
-0.0007162051925034678
-0.0008142859847429771
-0.0008326796023446183
-0.0008979621975327424
-0.0009323999142019972
-0.0009806059249093191
-0.0009883076930229785
-0.0009106131545024543
-0.0008672110899217454
-0.000837210450883763
-0.00017299607034116022
-0.00033152232261325014
-0.00017679229130025106
-0.00018421248427689834
-0.00018552415786286282
-0.00035372228456252036
-0.0007275338593692838
-0.0008350847396464526
-0.0007449458239626987
-0.0004964159273894602
-0.0003451523801618993
-0.0004873832612462785
-0.0008728756620806636
-0.000782768466106063
-0.0008363040850484599
-0.0006905235753381186
-0.0006276474092084284
-0.0006162996303779452
-0.00044720929174899015
-0.0003116528497295879
-0.0004284256007337672
-0.0006195615744482645
-0.000711501993622631
-0.0006532620460064115