# vtk DataFile Version 3.0
PDE solution
ASCII
DATASET UNSTRUCTURED_GRID
POINTS 65 double
-1.0 -1.0 0.0
-1.0 0.0 0.0
-1.0 1.0 0.0
0.0 -1.0 0.0
0.0 0.0 0.0
0.0 1.0 0.0
1.0 -1.0 0.0
1.0 0.0 0.0
-1.0 -0.5 0.0
-1.0 0.5 0.0
-0.5 -1.0 0.0
-0.5 0.0 0.0
0.0 -0.5 0.0
-0.5 1.0 0.0
0.0 0.5 0.0
0.5 -1.0 0.0
0.5 0.0 0.0
1.0 -0.5 0.0
-0.5 -0.5 0.0
0.5 -0.5 0.0
-0.5 0.5 0.0
-1.0 -0.25 0.0
-1.0 -0.75 0.0
-1.0 0.75 0.0
-1.0 0.25 0.0
-0.25 -1.0 0.0
-0.75 -1.0 0.0
-0.25 0.0 0.0
-0.75 0.0 0.0
0.0 -0.25 0.0
0.0 -0.75 0.0
-0.25 1.0 0.0
-0.75 1.0 0.0
0.0 0.75 0.0
0.0 0.25 0.0
0.75 -1.0 0.0
0.25 -1.0 0.0
0.75 0.0 0.0
0.25 0.0 0.0
1.0 -0.25 0.0
1.0 -0.75 0.0
-0.75 -0.75 0.0
-0.25 -0.25 0.0
0.25 -0.75 0.0
0.75 -0.25 0.0
-0.75 0.25 0.0
-0.25 0.75 0.0
-0.75 -0.25 0.0
-0.5 -0.25 0.0
-0.75 -0.5 0.0
-0.25 -0.75 0.0
-0.5 -0.75 0.0
-0.25 -0.5 0.0
0.25 -0.25 0.0
0.25 -0.5 0.0
0.5 -0.25 0.0
0.75 -0.75 0.0
0.5 -0.75 0.0
0.75 -0.5 0.0
-0.75 0.75 0.0
-0.75 0.5 0.0
-0.5 0.75 0.0
-0.25 0.25 0.0
-0.25 0.5 0.0
-0.5 0.25 0.0
CELLS 96 384
3 1 28 21
3 21 8 47
3 28 11 47
3 47 28 21
3 11 48 27
3 27 4 42
3 48 18 42
3 42 48 27
3 8 49 22
3 22 0 41
3 49 18 41
3 41 22 49
3 18 49 48
3 48 11 47
3 49 8 47
3 47 48 49
3 3 25 30
3 30 12 50
3 25 10 50
3 50 25 30
3 10 51 26
3 26 0 41
3 51 18 41
3 41 51 26
3 12 52 29
3 29 4 42
3 52 18 42
3 42 52 29
3 18 51 52
3 52 12 50
3 51 10 50
3 50 51 52
3 4 29 38
3 38 16 53
3 29 12 53
3 53 38 29
3 12 54 30
3 30 3 43
3 54 19 43
3 43 30 54
3 16 55 37
3 37 7 44
3 55 19 44
3 44 37 55
3 19 54 55
3 55 16 53
3 54 12 53
3 53 54 55
3 6 35 40
3 40 17 56
3 35 15 56
3 56 40 35
3 15 57 36
3 36 3 43
3 57 19 43
3 43 57 36
3 17 58 39
3 39 7 44
3 58 19 44
3 44 58 39
3 19 57 58
3 58 17 56
3 57 15 56
3 56 57 58
3 2 23 32
3 32 13 59
3 23 9 59
3 59 23 32
3 9 60 24
3 24 1 45
3 60 20 45
3 45 60 24
3 13 61 31
3 31 5 46
3 61 20 46
3 46 31 61
3 20 61 60
3 60 9 59
3 61 13 59
3 59 61 60
3 4 34 27
3 27 11 62
3 34 14 62
3 62 34 27
3 14 63 33
3 33 5 46
3 63 20 46
3 46 63 33
3 11 64 28
3 28 1 45
3 64 20 45
3 45 64 28
3 20 63 64
3 64 11 62
3 63 14 62
3 62 64 63
CELL_TYPES 96
5
5
5
5
5
5
5
5
5
5
5
5
5
5
5
5
5
5
5
5
5
5
5
5
5
5
5
5
5
5
5
5
5
5
5
5
5
5
5
5
5
5
5
5
5
5
5
5
5
5
5
5
5
5
5
5
5
5
5
5
5
5
5
5
5
5
5
5
5
5
5
5
5
5
5
5
5
5
5
5
5
5
5
5
5
5
5
5
5
5
5
5
5
5
5
5
POINT_DATA 65
SCALARS u(x,y) double 1
LOOKUP_TABLE default
2.883262430684729e-18
-0.012334821935643494
-0.02252316104483527
0.012334821935643501
0.0
0.0
0.022523161044835285
0.0
-0.003033219097594078
-0.02053777667111582
0.0030332190975940836
-0.008631859834900424
0.008631859834900429
-0.01750455757351544
0.0
0.020537776671115834
0.0
0.01750455757351545
2.6693427381844144e-18
0.01568968224740139
-0.01568968224740138
-0.0068499861627468505
-0.0007583047743979567
-0.022251271687758555
-0.01730598373235136
0.006849986162746856
0.0007583047743979622
-0.0045782240792289555
-0.011289575435185429
0.004578224079228958
0.011289575435185436
-0.010455997569595622
-0.021492966913359363
0.0
0.0
0.02225127168775857
0.017305983732351374
0.0
0.0
0.010455997569595626
0.021492966913359373
2.754618569752676e-18
1.6382479851384292e-18
0.016222542928489802
0.010206591119608154
-0.01622254292848979
-0.010206591119608149
-0.006015951808874024
-0.00366195291094454
-0.0022622927266173487
0.00601595180887403
0.002262292726617354
0.0036619529109445446
0.0077279112491895705
0.013044561681411136
0.009382608770462764
0.021018949284711267
0.019343800399346113
0.0170815076727237
-0.021018949284711257
-0.019343800399346103
-0.01708150767272369
-0.007727911249189567
-0.009382608770462758
-0.013044561681411127