# vtk DataFile Version 3.0
PDE solution
ASCII
DATASET UNSTRUCTURED_GRID
POINTS 21 double
-1.0 -1.0 0.0
-1.0 0.0 0.0
-1.0 1.0 0.0
0.0 -1.0 0.0
0.0 0.0 0.0
0.0 1.0 0.0
1.0 -1.0 0.0
1.0 0.0 0.0
-1.0 -0.5 0.0
-1.0 0.5 0.0
-0.5 -1.0 0.0
-0.5 0.0 0.0
0.0 -0.5 0.0
-0.5 1.0 0.0
0.0 0.5 0.0
0.5 -1.0 0.0
0.5 0.0 0.0
1.0 -0.5 0.0
-0.5 -0.5 0.0
0.5 -0.5 0.0
-0.5 0.5 0.0
CELLS 24 96
3 1 11 8
3 8 0 18
3 11 4 18
3 18 8 11
3 3 12 10
3 10 0 18
3 12 4 18
3 18 12 10
3 4 12 16
3 16 7 19
3 12 3 19
3 19 16 12
3 6 15 17
3 17 7 19
3 15 3 19
3 19 17 15
3 2 13 9
3 9 1 20
3 13 5 20
3 20 13 9
3 4 14 11
3 11 1 20
3 14 5 20
3 20 11 14
CELL_TYPES 24
5
5
5
5
5
5
5
5
5
5
5
5
5
5
5
5
5
5
5
5
5
5
5
5
POINT_DATA 21
SCALARS u(x,y) double 1
LOOKUP_TABLE default
0.0
-0.05193237334046323
-0.08454107287980941
0.05193237334046323
0.0
0.0
0.08454107287980941
0.0
-0.012983093335115808
-0.08061595163901228
0.012983093335115808
-0.036231888377087865
0.036231888377087865
-0.06763285830389647
0.0
0.08061595163901228
0.0
0.06763285830389647
0.0
0.0617451764426443
-0.061745176442644295