# vtk DataFile Version 3.0
PDE solution
ASCII
DATASET UNSTRUCTURED_GRID
POINTS 289 double
0.0 0.0 0.0
1.0 0.0 0.0
0.0 1.0 0.0
1.0 1.0 0.0
0.5 0.0 0.0
0.0 0.5 0.0
1.0 0.5 0.0
0.5 1.0 0.0
0.5 0.5 0.0
0.75 0.0 0.0
0.25 0.0 0.0
0.0 0.75 0.0
0.0 0.25 0.0
1.0 0.75 0.0
1.0 0.25 0.0
0.75 1.0 0.0
0.25 1.0 0.0
0.25 0.25 0.0
0.75 0.75 0.0
0.75 0.25 0.0
0.5 0.25 0.0
0.75 0.5 0.0
0.25 0.75 0.0
0.25 0.5 0.0
0.5 0.75 0.0
0.875 0.0 0.0
0.625 0.0 0.0
0.375 0.0 0.0
0.125 0.0 0.0
0.0 0.875 0.0
0.0 0.625 0.0
0.0 0.375 0.0
0.0 0.125 0.0
1.0 0.875 0.0
1.0 0.625 0.0
1.0 0.375 0.0
1.0 0.125 0.0
0.875 1.0 0.0
0.625 1.0 0.0
0.375 1.0 0.0
0.125 1.0 0.0
0.125 0.125 0.0
0.375 0.375 0.0
0.625 0.625 0.0
0.875 0.875 0.0
0.875 0.375 0.0
0.625 0.125 0.0
0.5 0.375 0.0
0.5 0.125 0.0
0.625 0.5 0.0
0.875 0.5 0.0
0.375 0.875 0.0
0.125 0.625 0.0
0.375 0.5 0.0
0.125 0.5 0.0
0.5 0.625 0.0
0.5 0.875 0.0
0.875 0.125 0.0
0.875 0.25 0.0
0.75 0.125 0.0
0.375 0.125 0.0
0.25 0.125 0.0
0.375 0.25 0.0
0.875 0.625 0.0
0.875 0.75 0.0
0.75 0.625 0.0
0.625 0.375 0.0
0.75 0.375 0.0
0.625 0.25 0.0
0.125 0.875 0.0
0.25 0.875 0.0
0.125 0.75 0.0
0.125 0.375 0.0
0.125 0.25 0.0
0.25 0.375 0.0
0.625 0.875 0.0
0.75 0.875 0.0
0.625 0.75 0.0
0.375 0.625 0.0
0.375 0.75 0.0
0.25 0.625 0.0
0.9375 0.0 0.0
0.8125 0.0 0.0
0.6875 0.0 0.0
0.5625 0.0 0.0
0.4375 0.0 0.0
0.3125 0.0 0.0
0.1875 0.0 0.0
0.0625 0.0 0.0
0.0 0.9375 0.0
0.0 0.8125 0.0
0.0 0.6875 0.0
0.0 0.5625 0.0
0.0 0.4375 0.0
0.0 0.3125 0.0
0.0 0.1875 0.0
0.0 0.0625 0.0
1.0 0.9375 0.0
1.0 0.8125 0.0
1.0 0.6875 0.0
1.0 0.5625 0.0
1.0 0.4375 0.0
1.0 0.3125 0.0
1.0 0.1875 0.0
1.0 0.0625 0.0
0.9375 1.0 0.0
0.8125 1.0 0.0
0.6875 1.0 0.0
0.5625 1.0 0.0
0.4375 1.0 0.0
0.3125 1.0 0.0
0.1875 1.0 0.0
0.0625 1.0 0.0
0.0625 0.0625 0.0
0.1875 0.1875 0.0
0.3125 0.3125 0.0
0.4375 0.4375 0.0
0.5625 0.5625 0.0
0.6875 0.6875 0.0
0.8125 0.8125 0.0
0.9375 0.9375 0.0
0.9375 0.4375 0.0
0.8125 0.3125 0.0
0.6875 0.1875 0.0
0.5625 0.0625 0.0
0.5 0.4375 0.0
0.5 0.3125 0.0
0.5 0.1875 0.0
0.5 0.0625 0.0
0.5625 0.5 0.0
0.6875 0.5 0.0
0.8125 0.5 0.0
0.9375 0.5 0.0
0.4375 0.9375 0.0
0.3125 0.8125 0.0
0.1875 0.6875 0.0
0.0625 0.5625 0.0
0.4375 0.5 0.0
0.3125 0.5 0.0
0.1875 0.5 0.0
0.0625 0.5 0.0
0.5 0.5625 0.0
0.5 0.6875 0.0
0.5 0.8125 0.0
0.5 0.9375 0.0
0.8125 0.0625 0.0
0.9375 0.1875 0.0
0.8125 0.25 0.0
0.9375 0.25 0.0
0.75 0.1875 0.0
0.75 0.0625 0.0
0.4375 0.1875 0.0
0.3125 0.0625 0.0
0.25 0.1875 0.0
0.25 0.0625 0.0
0.3125 0.25 0.0
0.4375 0.25 0.0
0.8125 0.5625 0.0
0.9375 0.6875 0.0
0.8125 0.75 0.0
0.9375 0.75 0.0
0.75 0.6875 0.0
0.75 0.5625 0.0
0.5625 0.3125 0.0
0.6875 0.4375 0.0
0.75 0.3125 0.0
0.75 0.4375 0.0
0.6875 0.25 0.0
0.5625 0.25 0.0
0.0625 0.8125 0.0
0.1875 0.9375 0.0
0.25 0.8125 0.0
0.25 0.9375 0.0
0.1875 0.75 0.0
0.0625 0.75 0.0
0.1875 0.4375 0.0
0.0625 0.3125 0.0
0.1875 0.25 0.0
0.0625 0.25 0.0
0.25 0.3125 0.0
0.25 0.4375 0.0
0.5625 0.8125 0.0
0.6875 0.9375 0.0
0.75 0.8125 0.0
0.75 0.9375 0.0
0.6875 0.75 0.0
0.5625 0.75 0.0
0.3125 0.5625 0.0
0.4375 0.6875 0.0
0.3125 0.75 0.0
0.4375 0.75 0.0
0.25 0.6875 0.0
0.25 0.5625 0.0
0.9375 0.0625 0.0
0.875 0.0625 0.0
0.9375 0.125 0.0
0.9375 0.3125 0.0
0.9375 0.375 0.0
0.875 0.3125 0.0
0.6875 0.0625 0.0
0.625 0.0625 0.0
0.6875 0.125 0.0
0.8125 0.1875 0.0
0.8125 0.125 0.0
0.875 0.1875 0.0
0.4375 0.0625 0.0
0.4375 0.125 0.0
0.375 0.0625 0.0
0.1875 0.0625 0.0
0.125 0.0625 0.0
0.1875 0.125 0.0
0.4375 0.3125 0.0
0.4375 0.375 0.0
0.375 0.3125 0.0
0.3125 0.1875 0.0
0.375 0.1875 0.0
0.3125 0.125 0.0
0.9375 0.5625 0.0
0.875 0.5625 0.0
0.9375 0.625 0.0
0.9375 0.8125 0.0
0.9375 0.875 0.0
0.875 0.8125 0.0
0.6875 0.5625 0.0
0.625 0.5625 0.0
0.6875 0.625 0.0
0.8125 0.6875 0.0
0.8125 0.625 0.0
0.875 0.6875 0.0
0.5625 0.4375 0.0
0.5625 0.375 0.0
0.625 0.4375 0.0
0.8125 0.4375 0.0
0.875 0.4375 0.0
0.8125 0.375 0.0
0.5625 0.1875 0.0
0.5625 0.125 0.0
0.625 0.1875 0.0
0.6875 0.3125 0.0
0.625 0.3125 0.0
0.6875 0.375 0.0
0.0625 0.9375 0.0
0.0625 0.875 0.0
0.125 0.9375 0.0
0.3125 0.9375 0.0
0.375 0.9375 0.0
0.3125 0.875 0.0
0.0625 0.6875 0.0
0.0625 0.625 0.0
0.125 0.6875 0.0
0.1875 0.8125 0.0
0.1875 0.875 0.0
0.125 0.8125 0.0
0.0625 0.4375 0.0
0.125 0.4375 0.0
0.0625 0.375 0.0
0.0625 0.1875 0.0
0.0625 0.125 0.0
0.125 0.1875 0.0
0.3125 0.4375 0.0
0.375 0.4375 0.0
0.3125 0.375 0.0
0.1875 0.3125 0.0
0.125 0.3125 0.0
0.1875 0.375 0.0
0.5625 0.9375 0.0
0.5625 0.875 0.0
0.625 0.9375 0.0
0.8125 0.9375 0.0
0.875 0.9375 0.0
0.8125 0.875 0.0
0.5625 0.6875 0.0
0.5625 0.625 0.0
0.625 0.6875 0.0
0.6875 0.8125 0.0
0.625 0.8125 0.0
0.6875 0.875 0.0
0.4375 0.5625 0.0
0.375 0.5625 0.0
0.4375 0.625 0.0
0.4375 0.8125 0.0
0.4375 0.875 0.0
0.375 0.8125 0.0
0.1875 0.5625 0.0
0.125 0.5625 0.0
0.1875 0.625 0.0
0.3125 0.6875 0.0
0.375 0.6875 0.0
0.3125 0.625 0.0
CELLS 512 2048
3 1 81 104
3 104 36 193
3 81 25 193
3 193 104 81
3 25 194 82
3 82 9 145
3 194 57 145
3 145 82 194
3 36 195 103
3 103 14 146
3 195 57 146
3 146 103 195
3 57 195 194
3 194 25 193
3 195 36 193
3 193 195 194
3 14 102 148
3 148 58 196
3 102 35 196
3 196 102 148
3 35 197 101
3 101 6 121
3 197 45 121
3 121 101 197
3 58 198 147
3 147 19 122
3 198 45 122
3 122 198 147
3 45 198 197
3 197 35 196
3 198 58 196
3 196 197 198
3 9 83 150
3 150 59 199
3 83 26 199
3 199 150 83
3 26 200 84
3 84 4 124
3 200 46 124
3 124 84 200
3 59 201 149
3 149 19 123
3 201 46 123
3 123 149 201
3 46 200 201
3 201 59 199
3 200 26 199
3 199 200 201
3 19 149 147
3 147 58 202
3 149 59 202
3 202 147 149
3 59 203 150
3 150 9 145
3 203 57 145
3 145 203 150
3 58 204 148
3 148 14 146
3 204 57 146
3 146 148 204
3 57 203 204
3 204 58 202
3 203 59 202
3 202 203 204
3 4 128 85
3 85 27 205
3 128 48 205
3 205 85 128
3 48 206 127
3 127 20 151
3 206 60 151
3 151 127 206
3 27 207 86
3 86 10 152
3 207 60 152
3 152 86 207
3 60 207 206
3 206 48 205
3 207 27 205
3 205 207 206
3 10 87 154
3 154 61 208
3 87 28 208
3 208 87 154
3 28 209 88
3 88 0 113
3 209 41 113
3 113 209 88
3 61 210 153
3 153 17 114
3 210 41 114
3 114 210 153
3 41 210 209
3 209 28 208
3 210 61 208
3 208 210 209
3 20 126 156
3 156 62 211
3 126 47 211
3 211 156 126
3 47 212 125
3 125 8 116
3 212 42 116
3 116 212 125
3 62 213 155
3 155 17 115
3 213 42 115
3 115 213 155
3 42 212 213
3 213 62 211
3 212 47 211
3 211 213 212
3 17 155 153
3 153 61 214
3 155 62 214
3 214 155 153
3 62 215 156
3 156 20 151
3 215 60 151
3 151 215 156
3 61 216 154
3 154 10 152
3 216 60 152
3 152 216 154
3 60 216 215
3 215 62 214
3 216 61 214
3 214 216 215
3 6 132 100
3 100 34 217
3 132 50 217
3 217 132 100
3 50 218 131
3 131 21 157
3 218 63 157
3 157 131 218
3 34 219 99
3 99 13 158
3 219 63 158
3 158 99 219
3 63 218 219
3 219 34 217
3 218 50 217
3 217 218 219
3 13 98 160
3 160 64 220
3 98 33 220
3 220 160 98
3 33 221 97
3 97 3 120
3 221 44 120
3 120 221 97
3 64 222 159
3 159 18 119
3 222 44 119
3 119 222 159
3 44 222 221
3 221 33 220
3 222 64 220
3 220 221 222
3 21 130 162
3 162 65 223
3 130 49 223
3 223 130 162
3 49 224 129
3 129 8 117
3 224 43 117
3 117 129 224
3 65 225 161
3 161 18 118
3 225 43 118
3 118 161 225
3 43 224 225
3 225 65 223
3 224 49 223
3 223 224 225
3 18 161 159
3 159 64 226
3 161 65 226
3 226 161 159
3 65 227 162
3 162 21 157
3 227 63 157
3 157 227 162
3 64 228 160
3 160 13 158
3 228 63 158
3 158 160 228
3 63 228 227
3 227 65 226
3 228 64 226
3 226 228 227
3 8 125 129
3 129 49 229
3 125 47 229
3 229 129 125
3 47 230 126
3 126 20 163
3 230 66 163
3 163 126 230
3 49 231 130
3 130 21 164
3 231 66 164
3 164 130 231
3 66 231 230
3 230 47 229
3 231 49 229
3 229 231 230
3 21 131 166
3 166 67 232
3 131 50 232
3 232 131 166
3 50 233 132
3 132 6 121
3 233 45 121
3 121 233 132
3 67 234 165
3 165 19 122
3 234 45 122
3 122 165 234
3 45 233 234
3 234 67 232
3 233 50 232
3 232 234 233
3 20 127 168
3 168 68 235
3 127 48 235
3 235 168 127
3 48 236 128
3 128 4 124
3 236 46 124
3 124 128 236
3 68 237 167
3 167 19 123
3 237 46 123
3 123 167 237
3 46 237 236
3 236 48 235
3 237 68 235
3 235 237 236
3 19 167 165
3 165 67 238
3 167 68 238
3 238 165 167
3 68 239 168
3 168 20 163
3 239 66 163
3 163 168 239
3 67 240 166
3 166 21 164
3 240 66 164
3 164 240 166
3 66 239 240
3 240 67 238
3 239 68 238
3 238 239 240
3 2 89 112
3 112 40 241
3 89 29 241
3 241 89 112
3 29 242 90
3 90 11 169
3 242 69 169
3 169 242 90
3 40 243 111
3 111 16 170
3 243 69 170
3 170 243 111
3 69 243 242
3 242 29 241
3 243 40 241
3 241 242 243
3 16 110 172
3 172 70 244
3 110 39 244
3 244 172 110
3 39 245 109
3 109 7 133
3 245 51 133
3 133 245 109
3 70 246 171
3 171 22 134
3 246 51 134
3 134 171 246
3 51 246 245
3 245 39 244
3 246 70 244
3 244 245 246
3 11 91 174
3 174 71 247
3 91 30 247
3 247 91 174
3 30 248 92
3 92 5 136
3 248 52 136
3 136 248 92
3 71 249 173
3 173 22 135
3 249 52 135
3 135 173 249
3 52 248 249
3 249 71 247
3 248 30 247
3 247 249 248
3 22 171 173
3 173 71 250
3 171 70 250
3 250 173 171
3 70 251 172
3 172 16 170
3 251 69 170
3 170 172 251
3 71 252 174
3 174 11 169
3 252 69 169
3 169 174 252
3 69 251 252
3 252 71 250
3 251 70 250
3 250 252 251
3 5 140 93
3 93 31 253
3 140 54 253
3 253 93 140
3 54 254 139
3 139 23 175
3 254 72 175
3 175 254 139
3 31 255 94
3 94 12 176
3 255 72 176
3 176 255 94
3 72 254 255
3 255 31 253
3 254 54 253
3 253 255 254
3 12 95 178
3 178 73 256
3 95 32 256
3 256 95 178
3 32 257 96
3 96 0 113
3 257 41 113
3 113 257 96
3 73 258 177
3 177 17 114
3 258 41 114
3 114 258 177
3 41 258 257
3 257 32 256
3 258 73 256
3 256 258 257
3 23 138 180
3 180 74 259
3 138 53 259
3 259 138 180
3 53 260 137
3 137 8 116
3 260 42 116
3 116 260 137
3 74 261 179
3 179 17 115
3 261 42 115
3 115 261 179
3 42 261 260
3 260 53 259
3 261 74 259
3 259 260 261
3 17 177 179
3 179 74 262
3 177 73 262
3 262 177 179
3 73 263 178
3 178 12 176
3 263 72 176
3 176 263 178
3 74 264 180
3 180 23 175
3 264 72 175
3 175 264 180
3 72 263 264
3 264 74 262
3 263 73 262
3 262 263 264
3 7 144 108
3 108 38 265
3 144 56 265
3 265 108 144
3 56 266 143
3 143 24 181
3 266 75 181
3 181 266 143
3 38 267 107
3 107 15 182
3 267 75 182
3 182 107 267
3 75 267 266
3 266 56 265
3 267 38 265
3 265 266 267
3 15 106 184
3 184 76 268
3 106 37 268
3 268 106 184
3 37 269 105
3 105 3 120
3 269 44 120
3 120 105 269
3 76 270 183
3 183 18 119
3 270 44 119
3 119 183 270
3 44 269 270
3 270 76 268
3 269 37 268
3 268 270 269
3 24 142 186
3 186 77 271
3 142 55 271
3 271 186 142
3 55 272 141
3 141 8 117
3 272 43 117
3 117 272 141
3 77 273 185
3 185 18 118
3 273 43 118
3 118 273 185
3 43 273 272
3 272 55 271
3 273 77 271
3 271 272 273
3 18 185 183
3 183 76 274
3 185 77 274
3 274 183 185
3 77 275 186
3 186 24 181
3 275 75 181
3 181 275 186
3 76 276 184
3 184 15 182
3 276 75 182
3 182 276 184
3 75 276 275
3 275 77 274
3 276 76 274
3 274 275 276
3 8 137 141
3 141 55 277
3 137 53 277
3 277 141 137
3 53 278 138
3 138 23 187
3 278 78 187
3 187 278 138
3 55 279 142
3 142 24 188
3 279 78 188
3 188 142 279
3 78 278 279
3 279 55 277
3 278 53 277
3 277 278 279
3 24 143 190
3 190 79 280
3 143 56 280
3 280 190 143
3 56 281 144
3 144 7 133
3 281 51 133
3 133 144 281
3 79 282 189
3 189 22 134
3 282 51 134
3 134 282 189
3 51 281 282
3 282 79 280
3 281 56 280
3 280 282 281
3 23 139 192
3 192 80 283
3 139 54 283
3 283 192 139
3 54 284 140
3 140 5 136
3 284 52 136
3 136 284 140
3 80 285 191
3 191 22 135
3 285 52 135
3 135 191 285
3 52 284 285
3 285 80 283
3 284 54 283
3 283 284 285
3 22 189 191
3 191 80 286
3 189 79 286
3 286 191 189
3 79 287 190
3 190 24 188
3 287 78 188
3 188 190 287
3 80 288 192
3 192 23 187
3 288 78 187
3 187 288 192
3 78 287 288
3 288 80 286
3 287 79 286
3 286 287 288
CELL_TYPES 512
5
5
5
5
5
5
5
5
5
5
5
5
5
5
5
5
5
5
5
5
5
5
5
5
5
5
5
5
5
5
5
5
5
5
5
5
5
5
5
5
5
5
5
5
5
5
5
5
5
5
5
5
5
5
5
5
5
5
5
5
5
5
5
5
5
5
5
5
5
5
5
5
5
5
5
5
5
5
5
5
5
5
5
5
5
5
5
5
5
5
5
5
5
5
5
5
5
5
5
5
5
5
5
5
5
5
5
5
5
5
5
5
5
5
5
5
5
5
5
5
5
5
5
5
5
5
5
5
5
5
5
5
5
5
5
5
5
5
5
5
5
5
5
5
5
5
5
5
5
5
5
5
5
5
5
5
5
5
5
5
5
5
5
5
5
5
5
5
5
5
5
5
5
5
5
5
5
5
5
5
5
5
5
5
5
5
5
5
5
5
5
5
5
5
5
5
5
5
5
5
5
5
5
5
5
5
5
5
5
5
5
5
5
5
5
5
5
5
5
5
5
5
5
5
5
5
5
5
5
5
5
5
5
5
5
5
5
5
5
5
5
5
5
5
5
5
5
5
5
5
5
5
5
5
5
5
5
5
5
5
5
5
5
5
5
5
5
5
5
5
5
5
5
5
5
5
5
5
5
5
5
5
5
5
5
5
5
5
5
5
5
5
5
5
5
5
5
5
5
5
5
5
5
5
5
5
5
5
5
5
5
5
5
5
5
5
5
5
5
5
5
5
5
5
5
5
5
5
5
5
5
5
5
5
5
5
5
5
5
5
5
5
5
5
5
5
5
5
5
5
5
5
5
5
5
5
5
5
5
5
5
5
5
5
5
5
5
5
5
5
5
5
5
5
5
5
5
5
5
5
5
5
5
5
5
5
5
5
5
5
5
5
5
5
5
5
5
5
5
5
5
5
5
5
5
5
5
5
5
5
5
5
5
5
5
5
5
5
5
5
5
5
5
5
5
5
5
5
5
5
5
5
5
5
5
5
5
5
5
5
5
5
5
5
5
5
5
5
5
5
5
5
5
5
5
5
5
5
5
5
5
5
5
5
5
5
5
5
5
5
5
5
5
5
5
5
5
5
5
5
5
5
5
5
5
5
5
5
5
5
5
5
5
5
5
5
5
5
5
5
5
5
5
5
5
5
5
5
5
5
5
5
POINT_DATA 289
SCALARS u(x,y) double 1
LOOKUP_TABLE default
0.0011527919238129437
0.0014122818620422686
0.0
0.0
0.001316422883776513
0.0007474623298712895
0.0010414596465777024
0.0
0.0008958932759124973
0.0013884297790386529
0.001219434874963746
0.0003922564801805511
0.0010230110957872812
0.0005941875593549653
0.0013198426197003927
0.0
0.0
0.0010896883994851408
0.000545793822683549
0.0012908892414256823
0.0012087314383384263
0.001004304563860942
0.00041042426648435157
0.0007860707289232214
0.00046299501817171517
0.0014074669237323248
0.001357350109995831
0.0012688572560646569
0.001175719624162586
0.00019839279109423757
0.000576931594706893
0.0008983379933547863
0.0011127733589432283
0.00031393776277230124
0.0008376644292830086
0.001202939261232707
0.001390322040644464
0.0
0.0
0.0
0.0
0.001136405285559406
0.001010401353323664
0.0007425442793357595
0.00030026945686217546
0.001194737734094123
0.0013318200546383074
0.0010766439762597017
0.001289318773996879
0.0009585769869935132
0.0010321234290930192
0.00021835051950368426
0.0005839706082334334
0.000832800211051849
0.0007572289982812784
0.0006850643002368008
0.0002333874853541707
0.0013837839656874573
0.0013125495642529784
0.0013639613742924424
0.001239426209442079
0.0011864231881338347
0.0011522955359060266
0.0008270048122803015
0.0005820673807366539
0.0007951627350460105
0.0011305735771420067
0.0011703678578932066
0.0012557378407543768
0.00020064945043729693
0.00020735827721047903
0.00039683290254291216
0.0009113179335406485
0.001040166242628371
0.0009493791848560684
0.00025220692744128565
0.0002745653141424728
0.000500881389230004
0.0006388390338111882
0.0004326534523767446
0.0006048336826271787
0.001411881837903754
0.0013995655782411585
0.0013742763736492886
0.0013379460227938838
0.0012932165700361182
0.0012439942152443323
0.001196212454040536
0.0011600244251434592
9.947801485336628e-05
0.0002961772660421472
0.00048604301845330873
0.0006642923686654706
0.000825733743595955
0.0009644219376808198
0.0010729476115718508
0.0011404731604154924
0.00016098271408102386
0.00045846949540847377
0.0007207096530476787
0.0009446945067740705
0.001127639999835852
0.0012670874793302605
0.0013609886373829093
0.0014075956168999538
0.0
0.0
0.0
0.0
0.0
0.0
0.0
0.0
0.0011481636806402885
0.0011169879828735675
0.0010542596221525848
0.0009577532611639713
0.0008243379434932695
0.0006499131042153481
0.0004294905521977896
0.0001573671519903804
0.001125451149845412
0.001249775443842508
0.0013182449171696533
0.0013313761535031251
0.0009921517178346489
0.0011489630632259564
0.0012556115906251332
0.0013096350691393528
0.0009292811410999958
0.0009836284364153538
0.0010204975236098883
0.0010391226494664819
0.00011293449131827446
0.0003171955239568686
0.0004990111506856966
0.0006663877742746981
0.0008623993302045345
0.0008072915441171908
0.0007693269541200424
0.0007499116068104726
0.0007921115229806742
0.0005752052008322548
0.00034889945208687744
0.00011693021558870517
0.0013935534106381045
0.0013592655501094876
0.001303478217607724
0.0013180177864362045
0.001333448538535161
0.001382309190136416
0.0012300907157661441
0.0012362129702617327
0.0011457414297917936
0.00121113702199697
0.0011215274260541154
0.0011815082851127992
0.0009222833359152337
0.0007178639170440705
0.0005669376102161353
0.0005911561453803307
0.0006753170872350033
0.0009049476495832536
0.0011755613864158966
0.0010735922312827687
0.0012364557783441869
0.0010928858539725373
0.0012749156423143208
0.0012335840250722646
0.00029702989527527983
0.0001020012222055652
0.0003096980085329943
0.0001039465830226198
0.00040252057168052244
0.0003934028190167587
0.0008509889555714976
0.0009681693306773795
0.0010611171020021705
0.0010273374161861623
0.0010227382476459472
0.000870275102172741
0.00036236864547713936
0.00013169354313605805
0.0004108032713895842
0.00013749203708567358
0.0005224879282489319
0.00048102955392029955
0.0007156336945950537
0.0005548883165602884
0.00042048976007719933
0.000446845861747286
0.0005089887245227824
0.0006973893100712971
0.0014062598871464724
0.0014015807443807237
0.0013887225586504323
0.001265154621571477
0.0012008853894261392
0.0012593690388424564
0.0013680334049044607
0.0013509596287088895
0.0013493296352008015
0.0013454398292432272
0.0013754993426221636
0.001354074425413453
0.0012861636748339378
0.0012650645415770215
0.0012614797256365203
0.0011872182630107717
0.0011656914104758243
0.0011605733775588941
0.0011196566602030879
0.001044928510535113
0.0010879679906497957
0.0011746073564338996
0.00120291965225139
0.001212982129011599
0.0009421975795205927
0.0009347169869677898
0.0008349973818245589
0.0004552469338658818
0.0003105200237060094
0.0004455832787750416
0.000882781173081194
0.0008558747936297966
0.0007714150201449154
0.0006951398945364085
0.0008137123920004975
0.0007093336985754442
0.0010230575658368474
0.0011052738238141368
0.0010502647881697076
0.001108019972273288
0.001118897769255006
0.0011845399496477024
0.00127904664341894
0.0013117051037767615
0.0013000270616515322
0.001219531778533288
0.0011991658433515235
0.0011523310584130814
9.975963320211577e-05
0.00019895794274417752
0.00010060257610679272
0.00010642683336193056
0.00010942796110574602
0.0002123327887521675
0.00048749199952375
0.0005786954941229827
0.0004918266654521346
0.0003038139660996336
0.00020345572857322154
0.00029958155333676984
0.0008285673247707086
0.0008370258031233526
0.0009015981458336601
0.001078002996483324
0.0011188363303014212
0.0010928906268335876
0.000894661540599271
0.0009239040919806369
0.0009771754248181998
0.0009976257842671025
0.0009793198223715868
0.0009273279644047103
0.00012139888516176466
0.00024234048579789658
0.00012632483937289745
0.00014370929106479174
0.00015033647495197572
0.00028700865308533326
0.0005978731660599498
0.0007124549222664894
0.0006228029848647001
0.00039336339601828894
0.0003772050896661823
0.00026295729548406573
0.0007631505724341106
0.0007376058780236715
0.0006604855550697297
0.00033684666089682036
0.00022537978913842287
0.0003262615392010503
0.000683019134604464
0.0006726516285508311
0.0005927086442792172
0.0005216857972529576
0.0005370166497838794
0.0006202480517568414