# vtk DataFile Version 3.0
PDE solution
ASCII
DATASET UNSTRUCTURED_GRID
POINTS 289 double
0.0 0.0 0.0
1.0 0.0 0.0
0.0 1.0 0.0
1.0 1.0 0.0
0.5 0.0 0.0
0.0 0.5 0.0
1.0 0.5 0.0
0.5 1.0 0.0
0.5 0.5 0.0
0.75 0.0 0.0
0.25 0.0 0.0
0.0 0.75 0.0
0.0 0.25 0.0
1.0 0.75 0.0
1.0 0.25 0.0
0.75 1.0 0.0
0.25 1.0 0.0
0.25 0.25 0.0
0.75 0.75 0.0
0.75 0.25 0.0
0.5 0.25 0.0
0.75 0.5 0.0
0.25 0.75 0.0
0.25 0.5 0.0
0.5 0.75 0.0
0.875 0.0 0.0
0.625 0.0 0.0
0.375 0.0 0.0
0.125 0.0 0.0
0.0 0.875 0.0
0.0 0.625 0.0
0.0 0.375 0.0
0.0 0.125 0.0
1.0 0.875 0.0
1.0 0.625 0.0
1.0 0.375 0.0
1.0 0.125 0.0
0.875 1.0 0.0
0.625 1.0 0.0
0.375 1.0 0.0
0.125 1.0 0.0
0.125 0.125 0.0
0.375 0.375 0.0
0.625 0.625 0.0
0.875 0.875 0.0
0.875 0.375 0.0
0.625 0.125 0.0
0.5 0.375 0.0
0.5 0.125 0.0
0.625 0.5 0.0
0.875 0.5 0.0
0.375 0.875 0.0
0.125 0.625 0.0
0.375 0.5 0.0
0.125 0.5 0.0
0.5 0.625 0.0
0.5 0.875 0.0
0.875 0.125 0.0
0.875 0.25 0.0
0.75 0.125 0.0
0.375 0.125 0.0
0.25 0.125 0.0
0.375 0.25 0.0
0.875 0.625 0.0
0.875 0.75 0.0
0.75 0.625 0.0
0.625 0.375 0.0
0.625 0.25 0.0
0.75 0.375 0.0
0.125 0.875 0.0
0.25 0.875 0.0
0.125 0.75 0.0
0.125 0.375 0.0
0.125 0.25 0.0
0.25 0.375 0.0
0.625 0.875 0.0
0.75 0.875 0.0
0.625 0.75 0.0
0.375 0.625 0.0
0.25 0.625 0.0
0.375 0.75 0.0
0.9375 0.0 0.0
0.8125 0.0 0.0
0.6875 0.0 0.0
0.5625 0.0 0.0
0.4375 0.0 0.0
0.3125 0.0 0.0
0.1875 0.0 0.0
0.0625 0.0 0.0
0.0 0.9375 0.0
0.0 0.8125 0.0
0.0 0.6875 0.0
0.0 0.5625 0.0
0.0 0.4375 0.0
0.0 0.3125 0.0
0.0 0.1875 0.0
0.0 0.0625 0.0
1.0 0.9375 0.0
1.0 0.8125 0.0
1.0 0.6875 0.0
1.0 0.5625 0.0
1.0 0.4375 0.0
1.0 0.3125 0.0
1.0 0.1875 0.0
1.0 0.0625 0.0
0.9375 1.0 0.0
0.8125 1.0 0.0
0.6875 1.0 0.0
0.5625 1.0 0.0
0.4375 1.0 0.0
0.3125 1.0 0.0
0.1875 1.0 0.0
0.0625 1.0 0.0
0.0625 0.0625 0.0
0.1875 0.1875 0.0
0.3125 0.3125 0.0
0.4375 0.4375 0.0
0.5625 0.5625 0.0
0.6875 0.6875 0.0
0.8125 0.8125 0.0
0.9375 0.9375 0.0
0.9375 0.4375 0.0
0.8125 0.3125 0.0
0.6875 0.1875 0.0
0.5625 0.0625 0.0
0.5 0.4375 0.0
0.5 0.3125 0.0
0.5 0.1875 0.0
0.5 0.0625 0.0
0.5625 0.5 0.0
0.6875 0.5 0.0
0.8125 0.5 0.0
0.9375 0.5 0.0
0.4375 0.9375 0.0
0.3125 0.8125 0.0
0.1875 0.6875 0.0
0.0625 0.5625 0.0
0.4375 0.5 0.0
0.3125 0.5 0.0
0.1875 0.5 0.0
0.0625 0.5 0.0
0.5 0.5625 0.0
0.5 0.6875 0.0
0.5 0.8125 0.0
0.5 0.9375 0.0
0.8125 0.0625 0.0
0.9375 0.1875 0.0
0.8125 0.25 0.0
0.9375 0.25 0.0
0.75 0.1875 0.0
0.75 0.0625 0.0
0.4375 0.1875 0.0
0.3125 0.0625 0.0
0.25 0.1875 0.0
0.25 0.0625 0.0
0.3125 0.25 0.0
0.4375 0.25 0.0
0.8125 0.5625 0.0
0.9375 0.6875 0.0
0.8125 0.75 0.0
0.9375 0.75 0.0
0.75 0.6875 0.0
0.75 0.5625 0.0
0.6875 0.4375 0.0
0.5625 0.3125 0.0
0.6875 0.25 0.0
0.5625 0.25 0.0
0.75 0.3125 0.0
0.75 0.4375 0.0
0.0625 0.8125 0.0
0.1875 0.9375 0.0
0.25 0.8125 0.0
0.25 0.9375 0.0
0.1875 0.75 0.0
0.0625 0.75 0.0
0.1875 0.4375 0.0
0.0625 0.3125 0.0
0.1875 0.25 0.0
0.0625 0.25 0.0
0.25 0.3125 0.0
0.25 0.4375 0.0
0.5625 0.8125 0.0
0.6875 0.9375 0.0
0.75 0.8125 0.0
0.75 0.9375 0.0
0.6875 0.75 0.0
0.5625 0.75 0.0
0.4375 0.6875 0.0
0.3125 0.5625 0.0
0.25 0.6875 0.0
0.25 0.5625 0.0
0.3125 0.75 0.0
0.4375 0.75 0.0
0.9375 0.0625 0.0
0.875 0.0625 0.0
0.9375 0.125 0.0
0.9375 0.3125 0.0
0.9375 0.375 0.0
0.875 0.3125 0.0
0.6875 0.0625 0.0
0.625 0.0625 0.0
0.6875 0.125 0.0
0.8125 0.1875 0.0
0.875 0.1875 0.0
0.8125 0.125 0.0
0.4375 0.0625 0.0
0.4375 0.125 0.0
0.375 0.0625 0.0
0.1875 0.0625 0.0
0.125 0.0625 0.0
0.1875 0.125 0.0
0.4375 0.3125 0.0
0.4375 0.375 0.0
0.375 0.3125 0.0
0.3125 0.1875 0.0
0.3125 0.125 0.0
0.375 0.1875 0.0
0.9375 0.5625 0.0
0.875 0.5625 0.0
0.9375 0.625 0.0
0.9375 0.8125 0.0
0.9375 0.875 0.0
0.875 0.8125 0.0
0.6875 0.5625 0.0
0.625 0.5625 0.0
0.6875 0.625 0.0
0.8125 0.6875 0.0
0.875 0.6875 0.0
0.8125 0.625 0.0
0.5625 0.4375 0.0
0.625 0.4375 0.0
0.5625 0.375 0.0
0.5625 0.1875 0.0
0.5625 0.125 0.0
0.625 0.1875 0.0
0.8125 0.4375 0.0
0.875 0.4375 0.0
0.8125 0.375 0.0
0.6875 0.3125 0.0
0.6875 0.375 0.0
0.625 0.3125 0.0
0.0625 0.9375 0.0
0.0625 0.875 0.0
0.125 0.9375 0.0
0.3125 0.9375 0.0
0.375 0.9375 0.0
0.3125 0.875 0.0
0.0625 0.6875 0.0
0.0625 0.625 0.0
0.125 0.6875 0.0
0.1875 0.8125 0.0
0.1875 0.875 0.0
0.125 0.8125 0.0
0.0625 0.4375 0.0
0.125 0.4375 0.0
0.0625 0.375 0.0
0.0625 0.1875 0.0
0.0625 0.125 0.0
0.125 0.1875 0.0
0.3125 0.4375 0.0
0.375 0.4375 0.0
0.3125 0.375 0.0
0.1875 0.3125 0.0
0.125 0.3125 0.0
0.1875 0.375 0.0
0.5625 0.9375 0.0
0.5625 0.875 0.0
0.625 0.9375 0.0
0.8125 0.9375 0.0
0.875 0.9375 0.0
0.8125 0.875 0.0
0.5625 0.6875 0.0
0.5625 0.625 0.0
0.625 0.6875 0.0
0.6875 0.8125 0.0
0.625 0.8125 0.0
0.6875 0.875 0.0
0.4375 0.5625 0.0
0.4375 0.625 0.0
0.375 0.5625 0.0
0.1875 0.5625 0.0
0.125 0.5625 0.0
0.1875 0.625 0.0
0.4375 0.8125 0.0
0.4375 0.875 0.0
0.375 0.8125 0.0
0.3125 0.6875 0.0
0.375 0.6875 0.0
0.3125 0.625 0.0
CELLS 512 2048
3 1 81 104
3 104 36 193
3 81 25 193
3 193 81 104
3 25 194 82
3 82 9 145
3 194 57 145
3 145 194 82
3 36 195 103
3 103 14 146
3 195 57 146
3 146 103 195
3 57 194 195
3 195 36 193
3 194 25 193
3 193 195 194
3 14 102 148
3 148 58 196
3 102 35 196
3 196 148 102
3 35 197 101
3 101 6 121
3 197 45 121
3 121 197 101
3 58 198 147
3 147 19 122
3 198 45 122
3 122 198 147
3 45 198 197
3 197 35 196
3 198 58 196
3 196 197 198
3 9 83 150
3 150 59 199
3 83 26 199
3 199 150 83
3 26 200 84
3 84 4 124
3 200 46 124
3 124 84 200
3 59 201 149
3 149 19 123
3 201 46 123
3 123 201 149
3 46 200 201
3 201 59 199
3 200 26 199
3 199 200 201
3 19 147 149
3 149 59 202
3 147 58 202
3 202 147 149
3 58 203 148
3 148 14 146
3 203 57 146
3 146 203 148
3 59 204 150
3 150 9 145
3 204 57 145
3 145 150 204
3 57 203 204
3 204 59 202
3 203 58 202
3 202 203 204
3 4 128 85
3 85 27 205
3 128 48 205
3 205 85 128
3 48 206 127
3 127 20 151
3 206 60 151
3 151 127 206
3 27 207 86
3 86 10 152
3 207 60 152
3 152 86 207
3 60 207 206
3 206 48 205
3 207 27 205
3 205 206 207
3 10 87 154
3 154 61 208
3 87 28 208
3 208 154 87
3 28 209 88
3 88 0 113
3 209 41 113
3 113 88 209
3 61 210 153
3 153 17 114
3 210 41 114
3 114 153 210
3 41 210 209
3 209 28 208
3 210 61 208
3 208 209 210
3 20 126 156
3 156 62 211
3 126 47 211
3 211 156 126
3 47 212 125
3 125 8 116
3 212 42 116
3 116 125 212
3 62 213 155
3 155 17 115
3 213 42 115
3 115 155 213
3 42 213 212
3 212 47 211
3 213 62 211
3 211 213 212
3 17 153 155
3 155 62 214
3 153 61 214
3 214 155 153
3 61 215 154
3 154 10 152
3 215 60 152
3 152 215 154
3 62 216 156
3 156 20 151
3 216 60 151
3 151 216 156
3 60 216 215
3 215 61 214
3 216 62 214
3 214 216 215
3 6 132 100
3 100 34 217
3 132 50 217
3 217 132 100
3 50 218 131
3 131 21 157
3 218 63 157
3 157 131 218
3 34 219 99
3 99 13 158
3 219 63 158
3 158 99 219
3 63 219 218
3 218 50 217
3 219 34 217
3 217 218 219
3 13 98 160
3 160 64 220
3 98 33 220
3 220 160 98
3 33 221 97
3 97 3 120
3 221 44 120
3 120 221 97
3 64 222 159
3 159 18 119
3 222 44 119
3 119 222 159
3 44 221 222
3 222 64 220
3 221 33 220
3 220 221 222
3 21 130 162
3 162 65 223
3 130 49 223
3 223 130 162
3 49 224 129
3 129 8 117
3 224 43 117
3 117 224 129
3 65 225 161
3 161 18 118
3 225 43 118
3 118 225 161
3 43 225 224
3 224 49 223
3 225 65 223
3 223 224 225
3 18 159 161
3 161 65 226
3 159 64 226
3 226 161 159
3 64 227 160
3 160 13 158
3 227 63 158
3 158 160 227
3 65 228 162
3 162 21 157
3 228 63 157
3 157 162 228
3 63 227 228
3 228 65 226
3 227 64 226
3 226 227 228
3 8 129 125
3 125 47 229
3 129 49 229
3 229 125 129
3 49 230 130
3 130 21 163
3 230 66 163
3 163 130 230
3 47 231 126
3 126 20 164
3 231 66 164
3 164 126 231
3 66 230 231
3 231 47 229
3 230 49 229
3 229 230 231
3 20 127 166
3 166 67 232
3 127 48 232
3 232 127 166
3 48 233 128
3 128 4 124
3 233 46 124
3 124 128 233
3 67 234 165
3 165 19 123
3 234 46 123
3 123 165 234
3 46 234 233
3 233 48 232
3 234 67 232
3 232 234 233
3 21 131 168
3 168 68 235
3 131 50 235
3 235 168 131
3 50 236 132
3 132 6 121
3 236 45 121
3 121 132 236
3 68 237 167
3 167 19 122
3 237 45 122
3 122 167 237
3 45 237 236
3 236 50 235
3 237 68 235
3 235 237 236
3 19 167 165
3 165 67 238
3 167 68 238
3 238 165 167
3 68 239 168
3 168 21 163
3 239 66 163
3 163 168 239
3 67 240 166
3 166 20 164
3 240 66 164
3 164 166 240
3 66 240 239
3 239 68 238
3 240 67 238
3 238 239 240
3 2 89 112
3 112 40 241
3 89 29 241
3 241 89 112
3 29 242 90
3 90 11 169
3 242 69 169
3 169 242 90
3 40 243 111
3 111 16 170
3 243 69 170
3 170 243 111
3 69 242 243
3 243 40 241
3 242 29 241
3 241 242 243
3 16 110 172
3 172 70 244
3 110 39 244
3 244 172 110
3 39 245 109
3 109 7 133
3 245 51 133
3 133 245 109
3 70 246 171
3 171 22 134
3 246 51 134
3 134 171 246
3 51 245 246
3 246 70 244
3 245 39 244
3 244 245 246
3 11 91 174
3 174 71 247
3 91 30 247
3 247 91 174
3 30 248 92
3 92 5 136
3 248 52 136
3 136 248 92
3 71 249 173
3 173 22 135
3 249 52 135
3 135 249 173
3 52 248 249
3 249 71 247
3 248 30 247
3 247 248 249
3 22 171 173
3 173 71 250
3 171 70 250
3 250 173 171
3 70 251 172
3 172 16 170
3 251 69 170
3 170 172 251
3 71 252 174
3 174 11 169
3 252 69 169
3 169 174 252
3 69 252 251
3 251 70 250
3 252 71 250
3 250 251 252
3 5 140 93
3 93 31 253
3 140 54 253
3 253 93 140
3 54 254 139
3 139 23 175
3 254 72 175
3 175 139 254
3 31 255 94
3 94 12 176
3 255 72 176
3 176 94 255
3 72 255 254
3 254 54 253
3 255 31 253
3 253 255 254
3 12 95 178
3 178 73 256
3 95 32 256
3 256 178 95
3 32 257 96
3 96 0 113
3 257 41 113
3 113 96 257
3 73 258 177
3 177 17 114
3 258 41 114
3 114 177 258
3 41 258 257
3 257 32 256
3 258 73 256
3 256 258 257
3 23 138 180
3 180 74 259
3 138 53 259
3 259 138 180
3 53 260 137
3 137 8 116
3 260 42 116
3 116 137 260
3 74 261 179
3 179 17 115
3 261 42 115
3 115 261 179
3 42 260 261
3 261 74 259
3 260 53 259
3 259 261 260
3 17 177 179
3 179 74 262
3 177 73 262
3 262 177 179
3 73 263 178
3 178 12 176
3 263 72 176
3 176 178 263
3 74 264 180
3 180 23 175
3 264 72 175
3 175 264 180
3 72 264 263
3 263 73 262
3 264 74 262
3 262 263 264
3 7 144 108
3 108 38 265
3 144 56 265
3 265 108 144
3 56 266 143
3 143 24 181
3 266 75 181
3 181 266 143
3 38 267 107
3 107 15 182
3 267 75 182
3 182 107 267
3 75 266 267
3 267 38 265
3 266 56 265
3 265 266 267
3 15 106 184
3 184 76 268
3 106 37 268
3 268 184 106
3 37 269 105
3 105 3 120
3 269 44 120
3 120 269 105
3 76 270 183
3 183 18 119
3 270 44 119
3 119 270 183
3 44 270 269
3 269 37 268
3 270 76 268
3 268 269 270
3 24 142 186
3 186 77 271
3 142 55 271
3 271 142 186
3 55 272 141
3 141 8 117
3 272 43 117
3 117 272 141
3 77 273 185
3 185 18 118
3 273 43 118
3 118 185 273
3 43 273 272
3 272 55 271
3 273 77 271
3 271 273 272
3 18 185 183
3 183 76 274
3 185 77 274
3 274 185 183
3 77 275 186
3 186 24 181
3 275 75 181
3 181 275 186
3 76 276 184
3 184 15 182
3 276 75 182
3 182 276 184
3 75 276 275
3 275 77 274
3 276 76 274
3 274 276 275
3 8 141 137
3 137 53 277
3 141 55 277
3 277 141 137
3 55 278 142
3 142 24 187
3 278 78 187
3 187 142 278
3 53 279 138
3 138 23 188
3 279 78 188
3 188 279 138
3 78 278 279
3 279 53 277
3 278 55 277
3 277 278 279
3 23 139 190
3 190 79 280
3 139 54 280
3 280 190 139
3 54 281 140
3 140 5 136
3 281 52 136
3 136 281 140
3 79 282 189
3 189 22 135
3 282 52 135
3 135 189 282
3 52 281 282
3 282 79 280
3 281 54 280
3 280 281 282
3 24 143 192
3 192 80 283
3 143 56 283
3 283 192 143
3 56 284 144
3 144 7 133
3 284 51 133
3 133 144 284
3 80 285 191
3 191 22 134
3 285 51 134
3 134 285 191
3 51 284 285
3 285 80 283
3 284 56 283
3 283 284 285
3 22 191 189
3 189 79 286
3 191 80 286
3 286 189 191
3 80 287 192
3 192 24 187
3 287 78 187
3 187 287 192
3 79 288 190
3 190 23 188
3 288 78 188
3 188 190 288
3 78 287 288
3 288 79 286
3 287 80 286
3 286 288 287
CELL_TYPES 512
5
5
5
5
5
5
5
5
5
5
5
5
5
5
5
5
5
5
5
5
5
5
5
5
5
5
5
5
5
5
5
5
5
5
5
5
5
5
5
5
5
5
5
5
5
5
5
5
5
5
5
5
5
5
5
5
5
5
5
5
5
5
5
5
5
5
5
5
5
5
5
5
5
5
5
5
5
5
5
5
5
5
5
5
5
5
5
5
5
5
5
5
5
5
5
5
5
5
5
5
5
5
5
5
5
5
5
5
5
5
5
5
5
5
5
5
5
5
5
5
5
5
5
5
5
5
5
5
5
5
5
5
5
5
5
5
5
5
5
5
5
5
5
5
5
5
5
5
5
5
5
5
5
5
5
5
5
5
5
5
5
5
5
5
5
5
5
5
5
5
5
5
5
5
5
5
5
5
5
5
5
5
5
5
5
5
5
5
5
5
5
5
5
5
5
5
5
5
5
5
5
5
5
5
5
5
5
5
5
5
5
5
5
5
5
5
5
5
5
5
5
5
5
5
5
5
5
5
5
5
5
5
5
5
5
5
5
5
5
5
5
5
5
5
5
5
5
5
5
5
5
5
5
5
5
5
5
5
5
5
5
5
5
5
5
5
5
5
5
5
5
5
5
5
5
5
5
5
5
5
5
5
5
5
5
5
5
5
5
5
5
5
5
5
5
5
5
5
5
5
5
5
5
5
5
5
5
5
5
5
5
5
5
5
5
5
5
5
5
5
5
5
5
5
5
5
5
5
5
5
5
5
5
5
5
5
5
5
5
5
5
5
5
5
5
5
5
5
5
5
5
5
5
5
5
5
5
5
5
5
5
5
5
5
5
5
5
5
5
5
5
5
5
5
5
5
5
5
5
5
5
5
5
5
5
5
5
5
5
5
5
5
5
5
5
5
5
5
5
5
5
5
5
5
5
5
5
5
5
5
5
5
5
5
5
5
5
5
5
5
5
5
5
5
5
5
5
5
5
5
5
5
5
5
5
5
5
5
5
5
5
5
5
5
5
5
5
5
5
5
5
5
5
5
5
5
5
5
5
5
5
5
5
5
5
5
5
5
5
5
5
5
5
5
5
5
5
5
5
5
5
5
5
5
5
5
5
5
5
5
5
5
5
5
5
5
5
5
5
5
5
5
5
5
5
5
5
5
5
5
5
5
POINT_DATA 289
SCALARS u(x,y) double 1
LOOKUP_TABLE default
0.001152791924306386
0.0014122818580897425
0.0
0.0
0.001316422878226863
0.0007474623317323657
0.0010414596504049202
0.0
0.0008958932768827359
0.0013884297821020915
0.0012194348763616659
0.0003922564801231212
0.001023011094544201
0.0005941875569288951
0.001319842620575743
0.0
0.0
0.0010896884000675471
0.00054579382310295
0.0012908892419240213
0.0012087314381237363
0.001004304563776586
0.0004104242652916125
0.0007860707274882588
0.0004629950167166538
0.0014074669248348767
0.0013573501107452765
0.0012688572558400687
0.0011757196226834866
0.00019839279097052089
0.0005769315933323919
0.0008983379928431189
0.0011127733574722418
0.00031393776133471725
0.0008376644294284599
0.001202939263270586
0.0013903220402958327
0.0
0.0
0.0
0.0
0.0011364052846026093
0.0010104013530433677
0.0007425442787339096
0.00030026945646403105
0.0011947377351705392
0.0013318200551038675
0.0010766439763898088
0.0012893187725278126
0.0009585769875812436
0.001032123430696757
0.00021835051926029676
0.0005839706076357912
0.0008328002108675508
0.0007572289983463338
0.0006850642999884826
0.0002333874855904962
0.0013837839657636823
0.0013125495649632469
0.0013639613750433578
0.0012394262087250321
0.0011864231869298959
0.0011522955357893795
0.0008270048135081648
0.0005820673811575604
0.0007951627351452551
0.001130573576214161
0.0012557378406189647
0.0011703678581623629
0.00020064944989165362
0.0002073582767289355
0.00039683290173069647
0.0009113179339978172
0.0010401662414299257
0.0009493791848595818
0.00025220692718474244
0.00027456531430353437
0.0005008813887316032
0.0006388390338807121
0.0006048336823424424
0.00043265345236930057
0.0014118818368435409
0.0013995655809685259
0.0013742763734815903
0.0013379460213333695
0.001293216567370827
0.0012439942160108728
0.0011962124543546853
0.0011600244245043962
9.94780143397262e-05
0.0002961772651437923
0.00048604301770764044
0.0006642923685301327
0.000825733743619955
0.0009644219368514004
0.0010729476106689426
0.0011404731604812118
0.00016098271402836367
0.0004584694937004305
0.0007207096532726216
0.0009446945076832395
0.0011276400015990504
0.0012670874795813263
0.0013609886378344051
0.0014075956157087806
0.0
0.0
0.0
0.0
0.0
0.0
0.0
0.0
0.0011481636800731122
0.0011169879824460772
0.0010542596210005206
0.0009577532612743083
0.000824337943715995
0.0006499131036375491
0.00042949055241464136
0.00015736715194862423
0.001125451150919601
0.00124977544406216
0.0013182449172774282
0.001331376152739925
0.0009921517177063099
0.0011489630628511796
0.001255611589519208
0.0013096350666608842
0.0009292811411145905
0.0009836284368210575
0.0010204975234126667
0.001039122650727953
0.00011293449138812152
0.00031719552347453335
0.0004990111506501044
0.0006663877745278867
0.0008623993301893222
0.0008072915437266448
0.0007693269540013564
0.0007499116073896879
0.0007921115230799764
0.0005752051995200859
0.00034889945197298135
0.00011693021549196324
0.0013935534130278247
0.001359265549792277
0.001303478217678567
0.0013180177870028744
0.0013334485385024127
0.001382309191538379
0.0012300907140303597
0.001236212970480133
0.0011457414292069333
0.0012111370220998091
0.0011215274260604163
0.0011815082846304602
0.0009222833361255383
0.0007178639179258217
0.0005669376107013129
0.0005911561449305187
0.0006753170870039632
0.0009049476496754842
0.0010735922322718443
0.001175561386312811
0.0012749156422757913
0.001233584024612609
0.0012364557783578242
0.0010928858543156458
0.00029702989474076355
0.0001020012218651906
0.00030969800758244494
0.00010394658289288362
0.0004025205706267784
0.0003934028188205264
0.0008509889560975326
0.0009681693300091401
0.0010611171020330327
0.0010273374153282337
0.0010227382475290591
0.0008702751022544331
0.00036236864520742477
0.000131693542714035
0.0004108032714265169
0.0001374920371123237
0.0005224879278392611
0.00048102955386156393
0.0005548883165846298
0.0007156336959784114
0.0005089887236222027
0.0006973893099706028
0.00042048975933502424
0.0004468458615119836
0.001406259886784029
0.0014015807453229754
0.0013887225583793276
0.0012651546217987443
0.0012008853905102399
0.0012593690392190449
0.001368033405098753
0.0013509596286423277
0.0013493296358512241
0.0013454398288833525
0.0013540744250710123
0.0013754993433999273
0.0012861636722674447
0.0012650645396080364
0.001261479724548542
0.0011872182637460503
0.0011656914104966872
0.0011605733771515307
0.0011196566596968756
0.0010449285103214618
0.0010879679901029079
0.0011746073565027267
0.00121298212837982
0.0012029196514822477
0.0009421975800090437
0.000934716987805248
0.0008349973829382452
0.00045524693282830996
0.00031052002336429303
0.00044558327843650827
0.0008827811727730698
0.0008558747934214267
0.0007714150202928183
0.0006951398952486099
0.0007093336996804115
0.0008137123927272645
0.0010230575653968972
0.001050264788086408
0.0011052738237987924
0.0012790466425134333
0.0013117051034416314
0.0013000270615987951
0.0011080199721702955
0.0011188977699596704
0.0011845399501117103
0.0012195317784012656
0.0011523310589827813
0.001199165843107173
9.975963319419191e-05
0.00019895794219928253
0.00010060257623775907
0.00010642683297740846
0.00010942796090645665
0.0002123327881102936
0.0004874919986875233
0.0005786954935458987
0.0004918266646760292
0.0003038139648346991
0.00020345572833011964
0.00029958155279945307
0.000828567324952166
0.0008370258033484627
0.0009015981454505608
0.001078002995329662
0.0011188363293694068
0.0010928906259520688
0.0008946615405723575
0.0009239040914393961
0.0009771754248689576
0.0009976257841885845
0.0009793198224063672
0.0009273279647858788
0.00012139888498923526
0.00024234048574297467
0.00012632483872200315
0.00014370929143172546
0.00015033647496109516
0.000287008653653483
0.000597873164790575
0.0007124549218072408
0.0006228029839734095
0.00039336339588494265
0.0003772050892521782
0.0002629572950218139
0.000763150571732692
0.0006604855555466297
0.000737605878114841
0.0006830191340732989
0.0006726516286458277
0.0005927086436754089
0.0003368466603773503
0.00022537978915406623
0.0003262615388703703
0.0005216857962046514
0.0005370166497598233
0.000620248052101554